 Entering Gaussian System, Link 0=g09
 Input=14.com
 Output=14.log
 Initial command:
 /soft/gaussian/g09.a02.MNGFM5.0/g09/l1.exe /scratch/meanapan/Gau-23124.inp -scrdir=/scratch/meanapan/
 Entering Link 1 = /soft/gaussian/g09.a02.MNGFM5.0/g09/l1.exe PID=     23125.
  
 Copyright (c) 1988,1990,1992,1993,1995,1998,2003,2009, Gaussian, Inc.
                  All Rights Reserved.
  
 This is part of the Gaussian(R) 09 program.  It is based on
 the Gaussian(R) 03 system (copyright 2003, Gaussian, Inc.),
 the Gaussian(R) 98 system (copyright 1998, Gaussian, Inc.),
 the Gaussian(R) 94 system (copyright 1995, Gaussian, Inc.),
 the Gaussian 92(TM) system (copyright 1992, Gaussian, Inc.),
 the Gaussian 90(TM) system (copyright 1990, Gaussian, Inc.),
 the Gaussian 88(TM) system (copyright 1988, Gaussian, Inc.),
 the Gaussian 86(TM) system (copyright 1986, Carnegie Mellon
 University), and the Gaussian 82(TM) system (copyright 1983,
 Carnegie Mellon University). Gaussian is a federally registered
 trademark of Gaussian, Inc.
  
 This software contains proprietary and confidential information,
 including trade secrets, belonging to Gaussian, Inc.
  
 This software is provided under written license and may be
 used, copied, transmitted, or stored only in accord with that
 written license.
  
 The following legend is applicable only to US Government
 contracts under FAR:
  
                    RESTRICTED RIGHTS LEGEND
  
 Use, reproduction and disclosure by the US Government is
 subject to restrictions as set forth in subparagraphs (a)
 and (c) of the Commercial Computer Software - Restricted
 Rights clause in FAR 52.227-19.
  
 Gaussian, Inc.
 340 Quinnipiac St., Bldg. 40, Wallingford CT 06492
  
  
 ---------------------------------------------------------------
 Warning -- This program may not be used in any manner that
 competes with the business of Gaussian, Inc. or will provide
 assistance to any competitor of Gaussian, Inc.  The licensee
 of this program is prohibited from giving any competitor of
 Gaussian, Inc. access to this program.  By using this program,
 the user acknowledges that Gaussian, Inc. is engaged in the
 business of creating and licensing software in the field of
 computational chemistry and represents and warrants to the
 licensee that it is not a competitor of Gaussian, Inc. and that
 it will not use this program in any manner prohibited above.
 ---------------------------------------------------------------
  

 Cite this work as:
 Gaussian 09, Revision A.02+MNG,
 M. J. Frisch, G. W. Trucks, H. B. Schlegel, G. E. Scuseria, 
 M. A. Robb, J. R. Cheeseman, G. Scalmani, V. Barone, B. Mennucci, 
 G. A. Petersson, H. Nakatsuji, M. Caricato, X. Li, H. P. Hratchian, 
 A. F. Izmaylov, J. Bloino, G. Zheng, J. L. Sonnenberg, M. Hada, 
 M. Ehara, K. Toyota, R. Fukuda, J. Hasegawa, M. Ishida, T. Nakajima, 
 Y. Honda, O. Kitao, H. Nakai, T. Vreven, J. A. Montgomery, Jr., 
 J. E. Peralta, F. Ogliaro, M. Bearpark, J. J. Heyd, E. Brothers, 
 K. N. Kudin, V. N. Staroverov, R. Kobayashi, J. Normand, 
 K. Raghavachari, A. Rendell, J. C. Burant, S. S. Iyengar, J. Tomasi, 
 M. Cossi, N. Rega, J. M. Millam, M. Klene, J. E. Knox, J. B. Cross, 
 V. Bakken, C. Adamo, J. Jaramillo, R. Gomperts, R. E. Stratmann, 
 O. Yazyev, A. J. Austin, R. Cammi, C. Pomelli, J. W. Ochterski, 
 R. L. Martin, K. Morokuma, V. G. Zakrzewski, G. A. Voth, 
 P. Salvador, J. J. Dannenberg, S. Dapprich, A. D. Daniels, 
 O. Farkas, J. B. Foresman, J. V. Ortiz, J. Cioslowski, 
 and D. J. Fox, Gaussian, Inc., Wallingford CT, 2009.
Minnesota Density Functionals module 5.0 by 
 Ke Yang, Yan Zhao, and Donald G. Truhlar.
  see http://comp.chem.umn.edu/mn-gfm/ for details
 
 ***************************************************
 Gaussian 09:  EM64L-G09RevA.02+MNGFM5.0 11-Jun-2009
                      1-Jan-2016 
 ***************************************************
 %nproc=4
 Will use up to    4 processors via shared memory.
 %mem=1Gb
 ----------------------------
 # m06/6-31G opt freq=noraman
 ----------------------------
 1/14=-1,18=20,19=15,26=3,38=1/1,3;
 2/9=110,12=2,17=6,18=5,40=1/2;
 3/5=1,6=6,11=2,16=1,25=1,30=1,71=1,74=-54/1,2,3;
 4//1;
 5/5=2,38=5/2;
 6/7=2,8=2,9=2,10=2,28=1/1;
 7//1,2,3,16;
 1/14=-1,18=20,19=15/3(2);
 2/9=110/2;
 99//99;
 2/9=110/2;
 3/5=1,6=6,11=2,16=1,25=1,30=1,71=1,74=-54/1,2,3;
 4/5=5,16=3/1;
 5/5=2,38=5/2;
 7//1,2,3,16;
 1/14=-1,18=20,19=15/3(-5);
 2/9=110/2;
 6/7=2,8=2,9=2,10=2,19=2,28=1/1;
 99/9=1/99;
 ------
 titulo
 ------
 Symbolic Z-matrix:
 Charge =  0 Multiplicity = 1
 C                     0.2217    1.3142   -0.1397 
 O                    -1.1304    1.7073    0.0404 
 C                     0.3769   -0.0907    0.3857 
 C                    -0.3384   -1.1946   -0.3567 
 C                    -1.7888   -1.3649    0.1118 
 H                    -1.2435    2.6078   -0.2645 
 H                     0.4939    1.3326   -1.2056 
 H                     0.9023    1.9902    0.3952 
 H                     1.6327   -0.3134    0.2286 
 H                     0.2767   -0.1562    1.4738 
 H                    -0.3121   -0.9815   -1.4321 
 H                     0.1993   -2.1384   -0.2087 
 H                    -2.2742   -2.18     -0.4318 
 H                    -1.8215   -1.6057    1.1787 
 H                    -2.3588   -0.4473   -0.0433 
 

 GradGradGradGradGradGradGradGradGradGradGradGradGradGradGradGradGradGrad
 Berny optimization.
 Initialization pass.
                           ----------------------------
                           !    Initial Parameters    !
                           ! (Angstroms and Degrees)  !
 --------------------------                            --------------------------
 ! Name  Definition              Value          Derivative Info.                !
 --------------------------------------------------------------------------------
 ! R1    R(1,2)                  1.4196         estimate D2E/DX2                !
 ! R2    R(1,3)                  1.5079         estimate D2E/DX2                !
 ! R3    R(1,7)                  1.1003         estimate D2E/DX2                !
 ! R4    R(1,8)                  1.0983         estimate D2E/DX2                !
 ! R5    R(2,6)                  0.9574         estimate D2E/DX2                !
 ! R6    R(3,4)                  1.5104         estimate D2E/DX2                !
 ! R7    R(3,9)                  1.285          estimate D2E/DX2                !
 ! R8    R(3,10)                 1.0947         estimate D2E/DX2                !
 ! R9    R(4,5)                  1.5337         estimate D2E/DX2                !
 ! R10   R(4,11)                 1.0966         estimate D2E/DX2                !
 ! R11   R(4,12)                 1.0963         estimate D2E/DX2                !
 ! R12   R(5,13)                 1.0934         estimate D2E/DX2                !
 ! R13   R(5,14)                 1.0942         estimate D2E/DX2                !
 ! R14   R(5,15)                 1.0913         estimate D2E/DX2                !
 ! A1    A(2,1,3)              108.1691         estimate D2E/DX2                !
 ! A2    A(2,1,7)              110.7271         estimate D2E/DX2                !
 ! A3    A(2,1,8)              110.9774         estimate D2E/DX2                !
 ! A4    A(3,1,7)              109.1268         estimate D2E/DX2                !
 ! A5    A(3,1,8)              109.8746         estimate D2E/DX2                !
 ! A6    A(7,1,8)              107.9513         estimate D2E/DX2                !
 ! A7    A(1,2,6)              109.4247         estimate D2E/DX2                !
 ! A8    A(1,3,4)              117.4462         estimate D2E/DX2                !
 ! A9    A(1,3,9)              102.6765         estimate D2E/DX2                !
 ! A10   A(1,3,10)             113.1201         estimate D2E/DX2                !
 ! A11   A(4,3,9)              106.0247         estimate D2E/DX2                !
 ! A12   A(4,3,10)             113.6712         estimate D2E/DX2                !
 ! A13   A(9,3,10)             101.5722         estimate D2E/DX2                !
 ! A14   A(3,4,5)              112.2636         estimate D2E/DX2                !
 ! A15   A(3,4,11)             109.1852         estimate D2E/DX2                !
 ! A16   A(3,4,12)             109.3035         estimate D2E/DX2                !
 ! A17   A(5,4,11)             110.1099         estimate D2E/DX2                !
 ! A18   A(5,4,12)             109.0878         estimate D2E/DX2                !
 ! A19   A(11,4,12)            106.7339         estimate D2E/DX2                !
 ! A20   A(4,5,13)             110.5327         estimate D2E/DX2                !
 ! A21   A(4,5,14)             110.5206         estimate D2E/DX2                !
 ! A22   A(4,5,15)             110.9265         estimate D2E/DX2                !
 ! A23   A(13,5,14)            107.9046         estimate D2E/DX2                !
 ! A24   A(13,5,15)            108.9223         estimate D2E/DX2                !
 ! A25   A(14,5,15)            107.9389         estimate D2E/DX2                !
 ! D1    D(3,1,2,6)            178.3672         estimate D2E/DX2                !
 ! D2    D(7,1,2,6)            -62.101          estimate D2E/DX2                !
 ! D3    D(8,1,2,6)             57.7679         estimate D2E/DX2                !
 ! D4    D(2,1,3,4)             66.9568         estimate D2E/DX2                !
 ! D5    D(2,1,3,9)           -177.2161         estimate D2E/DX2                !
 ! D6    D(2,1,3,10)           -68.5771         estimate D2E/DX2                !
 ! D7    D(7,1,3,4)            -53.5786         estimate D2E/DX2                !
 ! D8    D(7,1,3,9)             62.2485         estimate D2E/DX2                !
 ! D9    D(7,1,3,10)           170.8875         estimate D2E/DX2                !
 ! D10   D(8,1,3,4)           -171.7588         estimate D2E/DX2                !
 ! D11   D(8,1,3,9)            -55.9317         estimate D2E/DX2                !
 ! D12   D(8,1,3,10)            52.7074         estimate D2E/DX2                !
 ! D13   D(1,3,4,5)            -85.6655         estimate D2E/DX2                !
 ! D14   D(1,3,4,11)            36.7333         estimate D2E/DX2                !
 ! D15   D(1,3,4,12)           153.1496         estimate D2E/DX2                !
 ! D16   D(9,3,4,5)            160.3527         estimate D2E/DX2                !
 ! D17   D(9,3,4,11)           -77.2485         estimate D2E/DX2                !
 ! D18   D(9,3,4,12)            39.1679         estimate D2E/DX2                !
 ! D19   D(10,3,4,5)            49.6333         estimate D2E/DX2                !
 ! D20   D(10,3,4,11)          172.0321         estimate D2E/DX2                !
 ! D21   D(10,3,4,12)          -71.5515         estimate D2E/DX2                !
 ! D22   D(3,4,5,13)          -179.1049         estimate D2E/DX2                !
 ! D23   D(3,4,5,14)           -59.7171         estimate D2E/DX2                !
 ! D24   D(3,4,5,15)            59.9673         estimate D2E/DX2                !
 ! D25   D(11,4,5,13)           59.0218         estimate D2E/DX2                !
 ! D26   D(11,4,5,14)          178.4096         estimate D2E/DX2                !
 ! D27   D(11,4,5,15)          -61.906          estimate D2E/DX2                !
 ! D28   D(12,4,5,13)          -57.7963         estimate D2E/DX2                !
 ! D29   D(12,4,5,14)           61.5915         estimate D2E/DX2                !
 ! D30   D(12,4,5,15)         -178.7241         estimate D2E/DX2                !
 --------------------------------------------------------------------------------
 Trust Radius=3.00D-01 FncErr=1.00D-07 GrdErr=1.00D-06
 Number of steps in this run=  79 maximum allowed number of steps= 100.
 GradGradGradGradGradGradGradGradGradGradGradGradGradGradGradGradGradGrad

                          Input orientation:                          
 ---------------------------------------------------------------------
 Center     Atomic      Atomic             Coordinates (Angstroms)
 Number     Number       Type             X           Y           Z
 ---------------------------------------------------------------------
      1          6           0        0.221700    1.314200   -0.139700
      2          8           0       -1.130400    1.707300    0.040400
      3          6           0        0.376900   -0.090700    0.385700
      4          6           0       -0.338400   -1.194600   -0.356700
      5          6           0       -1.788800   -1.364900    0.111800
      6          1           0       -1.243500    2.607800   -0.264500
      7          1           0        0.493900    1.332600   -1.205600
      8          1           0        0.902300    1.990200    0.395200
      9          1           0        1.632700   -0.313400    0.228600
     10          1           0        0.276700   -0.156200    1.473800
     11          1           0       -0.312100   -0.981500   -1.432100
     12          1           0        0.199300   -2.138400   -0.208700
     13          1           0       -2.274200   -2.180000   -0.431800
     14          1           0       -1.821500   -1.605700    1.178700
     15          1           0       -2.358800   -0.447300   -0.043300
 ---------------------------------------------------------------------
                    Distance matrix (angstroms):
                    1          2          3          4          5
     1  C    0.000000
     2  O    1.419556   0.000000
     3  C    1.507938   2.371495   0.000000
     4  C    2.579705   3.034135   1.510433   0.000000
     5  C    3.359009   3.142770   2.527620   1.533674   0.000000
     6  H    1.958517   0.957421   3.214087   3.909725   4.027567
     7  H    1.100261   2.081170   2.138155   2.792865   3.771309
     8  H    1.098322   2.082735   2.146225   3.499663   4.310340
     9  H    2.185326   3.428319   1.285033   2.237035   3.581334
    10  H    2.183686   2.739927   1.094665   2.192568   2.753596
    11  H    2.688025   3.172935   2.138374   1.096626   2.170545
    12  H    3.453362   4.076710   2.139609   1.096259   2.157212
    13  H    4.303983   4.079504   3.473012   2.173471   1.093390
    14  H    3.799824   3.570618   2.785146   2.173946   1.094226
    15  H    3.125885   2.481587   2.791999   2.176854   1.091305
                    6          7          8          9         10
     6  H    0.000000
     7  H    2.351672   0.000000
     8  H    2.328324   1.778142   0.000000
     9  H    4.129054   2.462339   2.422357   0.000000
    10  H    3.601721   3.072928   2.482295   1.847693   0.000000
    11  H    3.887656   2.460894   3.693886   2.643204   3.077671
    12  H    4.960968   3.623319   4.231340   2.361460   2.601137
    13  H    4.900343   4.538668   5.307038   4.379976   3.772820
    14  H    4.491157   4.436166   4.578587   3.808442   2.567212
    15  H    3.259825   3.557651   4.094931   4.002990   3.054864
                   11         12         13         14         15
    11  H    0.000000
    12  H    1.759732   0.000000
    13  H    2.507357   2.483889   0.000000
    14  H    3.079641   2.508442   1.768748   0.000000
    15  H    2.530438   3.071002   1.777734   1.767446   0.000000
 Stoichiometry    C4H10O
 Framework group  C1[X(C4H10O)]
 Deg. of freedom    39
 Full point group                 C1      NOp   1
 Largest Abelian subgroup         C1      NOp   1
 Largest concise Abelian subgroup C1      NOp   1
                         Standard orientation:                         
 ---------------------------------------------------------------------
 Center     Atomic      Atomic             Coordinates (Angstroms)
 Number     Number       Type             X           Y           Z
 ---------------------------------------------------------------------
      1          6           0       -1.388152    0.393332   -0.141416
      2          8           0       -1.391571   -1.014244    0.042586
      3          6           0       -0.081190    0.932873    0.382629
      4          6           0        1.177673    0.549095   -0.358577
      5          6           0        1.742816   -0.796159    0.113713
      6          1           0       -2.225528   -1.373074   -0.261409
      7          1           0       -1.481080    0.646843   -1.208033
      8          1           0       -2.226212    0.861656    0.392099
      9          1           0       -0.214852    2.200801    0.222000
     10          1           0        0.009375    0.857739    1.470951
     11          1           0        0.965735    0.512389   -1.433902
     12          1           0        1.935702    1.327480   -0.212654
     13          1           0        2.660498   -1.038428   -0.429121
     14          1           0        1.983144   -0.757958    1.180536
     15          1           0        1.018906   -1.598347   -0.039241
 ---------------------------------------------------------------------
 Rotational constants (GHZ):      7.6392984      3.4202075      2.6429605
 Standard basis: 6-31G (6D, 7F)
 There are    65 symmetry adapted basis functions of A   symmetry.
 Integral buffers will be    131072 words long.
 Raffenetti 2 integral format.
 Two-electron integral symmetry is turned on.
    65 basis functions,   150 primitive gaussians,    65 cartesian basis functions
    21 alpha electrons       21 beta electrons
       nuclear repulsion energy       191.5336539772 Hartrees.
 NAtoms=   15 NActive=   15 NUniq=   15 SFac= 7.50D-01 NAtFMM=   80 NAOKFM=F Big=F
 One-electron integrals computed using PRISM.
 NBasis=    65 RedAO= T  NBF=    65
 NBsUse=    65 1.00D-06 NBFU=    65
 Harris functional with IExCor= 1009 diagonalized for initial guess.
 ExpMin= 1.61D-01 ExpMax= 5.48D+03 ExpMxC= 8.25D+02 IAcc=1 IRadAn=         1 AccDes= 0.00D+00
 HarFok:  IExCor= 1009 AccDes= 0.00D+00 IRadAn=         1 IDoV= 1
 ScaDFX=  1.000000  1.000000  1.000000  1.000000
 FoFCou: FMM=F IPFlag=           0 FMFlag=      100000 FMFlg1=           0
         NFxFlg=           0 DoJE=T BraDBF=F KetDBF=T FulRan=T
         Omega=  0.000000  0.000000  1.000000  0.000000  0.000000 ICntrl=     500 IOpCl=  0
         NMat0=    1 NMatS0=    1 NMatT0=    0 NMatD0=    1 NMtDS0=    0 NMtDT0=    0
         I1Cent=           4 NGrid=           0.
 Petite list used in FoFCou.
 Initial guess orbital symmetries:
       Occupied  (A) (A) (A) (A) (A) (A) (A) (A) (A) (A) (A) (A)
                 (A) (A) (A) (A) (A) (A) (A) (A) (A)
       Virtual   (A) (A) (A) (A) (A) (A) (A) (A) (A) (A) (A) (A)
                 (A) (A) (A) (A) (A) (A) (A) (A) (A) (A) (A) (A)
                 (A) (A) (A) (A) (A) (A) (A) (A) (A) (A) (A) (A)
                 (A) (A) (A) (A) (A) (A) (A) (A)
 The electronic state of the initial guess is 1-A.
 Requested convergence on RMS density matrix=1.00D-08 within 128 cycles.
 Requested convergence on MAX density matrix=1.00D-06.
 Requested convergence on             energy=1.00D-06.
 No special actions if energy rises.
 Keep R1 ints in memory in canonical form, NReq=3343693.
 Integral accuracy reduced to 1.0D-05 until final iterations.
 Initial convergence to 1.0D-05 achieved.  Increase integral accuracy.
 SCF Done:  E(RM06) =  -233.414742805     A.U. after   15 cycles
             Convg  =    0.2389D-08             -V/T =  2.0055

 **********************************************************************

            Population analysis using the SCF density.

 **********************************************************************

 Orbital symmetries:
       Occupied  (A) (A) (A) (A) (A) (A) (A) (A) (A) (A) (A) (A)
                 (A) (A) (A) (A) (A) (A) (A) (A) (A)
       Virtual   (A) (A) (A) (A) (A) (A) (A) (A) (A) (A) (A) (A)
                 (A) (A) (A) (A) (A) (A) (A) (A) (A) (A) (A) (A)
                 (A) (A) (A) (A) (A) (A) (A) (A) (A) (A) (A) (A)
                 (A) (A) (A) (A) (A) (A) (A) (A)
 The electronic state is 1-A.
 Alpha  occ. eigenvalues --  -19.21920 -10.29277 -10.25201 -10.23245 -10.21247
 Alpha  occ. eigenvalues --   -1.05282  -0.79932  -0.72550  -0.63813  -0.57208
 Alpha  occ. eigenvalues --   -0.53157  -0.47984  -0.44444  -0.42024  -0.38868
 Alpha  occ. eigenvalues --   -0.38400  -0.35794  -0.33554  -0.31576  -0.31046
 Alpha  occ. eigenvalues --   -0.27534
 Alpha virt. eigenvalues --    0.07181   0.11269   0.14129   0.14659   0.15264
 Alpha virt. eigenvalues --    0.18517   0.19087   0.19674   0.19981   0.21167
 Alpha virt. eigenvalues --    0.23256   0.24016   0.28653   0.30280   0.54962
 Alpha virt. eigenvalues --    0.56117   0.56984   0.58371   0.59766   0.62097
 Alpha virt. eigenvalues --    0.67958   0.68954   0.72801   0.74585   0.80160
 Alpha virt. eigenvalues --    0.82961   0.84468   0.88200   0.88434   0.91889
 Alpha virt. eigenvalues --    0.92333   0.94071   0.95566   0.97978   1.00880
 Alpha virt. eigenvalues --    1.03398   1.09834   1.12185   1.17524   1.24069
 Alpha virt. eigenvalues --    1.31973   1.58132   1.63890   1.87935
          Condensed to atoms (all electrons):
              1          2          3          4          5          6
     1  C    4.988706   0.198047   0.289311  -0.045401  -0.002911  -0.029804
     2  O    0.198047   8.362263  -0.076401   0.005540  -0.005235   0.236229
     3  C    0.289311  -0.076401   5.254431   0.299955  -0.056841   0.008882
     4  C   -0.045401   0.005540   0.299955   5.137797   0.315504  -0.000212
     5  C   -0.002911  -0.005235  -0.056841   0.315504   5.179598   0.000163
     6  H   -0.029804   0.236229   0.008882  -0.000212   0.000163   0.413742
     7  H    0.366612  -0.051489  -0.044770  -0.012804   0.000267  -0.003511
     8  H    0.370070  -0.047994  -0.043406   0.006493  -0.000235  -0.004394
     9  H   -0.039390   0.003273   0.353038  -0.041691   0.005250  -0.000279
    10  H   -0.035341   0.000816   0.374048  -0.043269  -0.005178  -0.000033
    11  H   -0.007707  -0.000517  -0.045455   0.384439  -0.038610  -0.000039
    12  H    0.005033  -0.000028  -0.040614   0.391328  -0.042380   0.000008
    13  H   -0.000012   0.000139   0.005353  -0.034929   0.368789  -0.000006
    14  H   -0.000163   0.000028  -0.005943  -0.039100   0.379897  -0.000005
    15  H    0.001470   0.011469  -0.005301  -0.033424   0.379561  -0.000129
              7          8          9         10         11         12
     1  C    0.366612   0.370070  -0.039390  -0.035341  -0.007707   0.005033
     2  O   -0.051489  -0.047994   0.003273   0.000816  -0.000517  -0.000028
     3  C   -0.044770  -0.043406   0.353038   0.374048  -0.045455  -0.040614
     4  C   -0.012804   0.006493  -0.041691  -0.043269   0.384439   0.391328
     5  C    0.000267  -0.000235   0.005250  -0.005178  -0.038610  -0.042380
     6  H   -0.003511  -0.004394  -0.000279  -0.000033  -0.000039   0.000008
     7  H    0.652138  -0.058296  -0.001492   0.005980   0.005406  -0.000040
     8  H   -0.058296   0.638596  -0.001608  -0.007017   0.000065  -0.000160
     9  H   -0.001492  -0.001608   0.666631  -0.031909  -0.000499  -0.008247
    10  H    0.005980  -0.007017  -0.031909   0.566596   0.004960  -0.001389
    11  H    0.005406   0.000065  -0.000499   0.004960   0.590540  -0.037756
    12  H   -0.000040  -0.000160  -0.008247  -0.001389  -0.037756   0.581658
    13  H    0.000007   0.000005  -0.000154   0.000093  -0.002998  -0.003491
    14  H    0.000005   0.000011   0.000011   0.004262   0.004917  -0.004556
    15  H    0.000072   0.000087  -0.000017  -0.000246  -0.004161   0.004345
             13         14         15
     1  C   -0.000012  -0.000163   0.001470
     2  O    0.000139   0.000028   0.011469
     3  C    0.005353  -0.005943  -0.005301
     4  C   -0.034929  -0.039100  -0.033424
     5  C    0.368789   0.379897   0.379561
     6  H   -0.000006  -0.000005  -0.000129
     7  H    0.000007   0.000005   0.000072
     8  H    0.000005   0.000011   0.000087
     9  H   -0.000154   0.000011  -0.000017
    10  H    0.000093   0.004262  -0.000246
    11  H   -0.002998   0.004917  -0.004161
    12  H   -0.003491  -0.004556   0.004345
    13  H    0.579301  -0.032290  -0.027139
    14  H   -0.032290   0.572687  -0.028914
    15  H   -0.027139  -0.028914   0.507492
 Mulliken atomic charges:
              1
     1  C   -0.058521
     2  O   -0.636142
     3  C   -0.266286
     4  C   -0.290226
     5  C   -0.477637
     6  H    0.379391
     7  H    0.141913
     8  H    0.147783
     9  H    0.097084
    10  H    0.167624
    11  H    0.147412
    12  H    0.156288
    13  H    0.147330
    14  H    0.149152
    15  H    0.194834
 Sum of Mulliken atomic charges =   0.00000
 Mulliken charges with hydrogens summed into heavy atoms:
              1
     1  C    0.231176
     2  O   -0.256752
     3  C   -0.001578
     4  C    0.013475
     5  C    0.013679
 Sum of Mulliken charges with hydrogens summed into heavy atoms =   0.00000
 Electronic spatial extent (au):  <R**2>=            522.8165
 Charge=              0.0000 electrons
 Dipole moment (field-independent basis, Debye):
    X=             -1.5724    Y=              0.7361    Z=             -0.7281  Tot=              1.8826
 Quadrupole moment (field-independent basis, Debye-Ang):
   XX=            -27.4334   YY=            -33.7591   ZZ=            -32.9527
   XY=              1.5146   XZ=              1.6186   YZ=              1.1349
 Traceless Quadrupole moment (field-independent basis, Debye-Ang):
   XX=              3.9483   YY=             -2.3774   ZZ=             -1.5710
   XY=              1.5146   XZ=              1.6186   YZ=              1.1349
 Octapole moment (field-independent basis, Debye-Ang**2):
  XXX=            -24.0606  YYY=             -7.1510  ZZZ=              0.1502  XYY=             -5.9047
  XXY=             -8.1663  XXZ=             -3.3396  XZZ=             -2.1787  YZZ=             -1.3849
  YYZ=             -1.6033  XYZ=             -1.9000
 Hexadecapole moment (field-independent basis, Debye-Ang**3):
 XXXX=           -372.1673 YYYY=           -192.1612 ZZZZ=            -72.6001 XXXY=             30.0116
 XXXZ=              4.2568 YYYX=             16.1522 YYYZ=              1.7517 ZZZX=              2.1761
 ZZZY=              0.4216 XXYY=            -89.6031 XXZZ=            -81.0289 YYZZ=            -46.6816
 XXYZ=              5.5010 YYXZ=              2.6993 ZZXY=              2.0713
 N-N= 1.915336539772D+02 E-N=-9.271892956416D+02  KE= 2.321417633379D+02
 Calling FoFJK, ICntrl=      2127 FMM=F ISym2X=0 I1Cent= 0 IOpClX= 0 NMat=1 NMatS=1 NMatT=0.
 ***** Axes restored to original set *****
 -------------------------------------------------------------------
 Center     Atomic                   Forces (Hartrees/Bohr)
 Number     Number              X              Y              Z
 -------------------------------------------------------------------
      1        6           0.004993489   -0.008975515    0.002768572
      2        8          -0.010647048   -0.005045655    0.004772655
      3        6           0.091013944   -0.011710553   -0.010478844
      4        6          -0.012736937   -0.000802620    0.004486853
      5        6           0.002595141   -0.001719427   -0.004545197
      6        1          -0.007047000    0.014963229   -0.004202828
      7        1           0.001478044   -0.000545929   -0.001858813
      8        1           0.002124171    0.000662579    0.000931560
      9        1          -0.062182245    0.011945912    0.008241289
     10        1          -0.007865498    0.002144094    0.001031923
     11        1          -0.000042251    0.000313432   -0.002613455
     12        1           0.000649179   -0.001326938   -0.000099543
     13        1          -0.002243992   -0.001694285   -0.000633922
     14        1           0.000211172   -0.000288244    0.002323325
     15        1          -0.000300169    0.002079920   -0.000123575
 -------------------------------------------------------------------
 Cartesian Forces:  Max     0.091013944 RMS     0.017316493

 GradGradGradGradGradGradGradGradGradGradGradGradGradGradGradGradGradGrad
 Berny optimization.
 Internal  Forces:  Max     0.063846700 RMS     0.008604703
 Search for a local minimum.
 Step number   1 out of a maximum of   79
 All quantities printed in internal units (Hartrees-Bohrs-Radians)
 Mixed Optimization -- RFO/linear search
 Second derivative matrix not updated -- first step.
     Eigenvalues ---    0.00321   0.00628   0.00661   0.01433   0.02935
     Eigenvalues ---    0.03656   0.04921   0.05079   0.05468   0.05513
     Eigenvalues ---    0.05597   0.06149   0.08326   0.09419   0.11092
     Eigenvalues ---    0.12183   0.13222   0.13653   0.16000   0.16000
     Eigenvalues ---    0.16000   0.16000   0.19371   0.21865   0.21905
     Eigenvalues ---    0.21989   0.29087   0.31307   0.31559   0.33653
     Eigenvalues ---    0.33868   0.34058   0.34099   0.34279   0.34329
     Eigenvalues ---    0.34424   0.34662   0.42527   0.560321000.00000
     Eigenvalues --- 1000.000001000.000001000.000001000.000001000.00000
     Eigenvalues --- 1000.000001000.000001000.000001000.000001000.00000
     Eigenvalues --- 1000.000001000.000001000.000001000.000001000.00000
     Eigenvalues --- 1000.000001000.000001000.000001000.000001000.00000
     Eigenvalues --- 1000.000001000.000001000.000001000.000001000.00000
     Eigenvalues --- 1000.000001000.000001000.000001000.00000
 RFO step:  Lambda=-2.32679851D-02 EMin= 3.20511176D-03
 Linear search not attempted -- first point.
 Maximum step size (   0.300) exceeded in Quadratic search.
    -- Step size scaled by   0.823
 Iteration  1 RMS(Cart)=  0.03291828 RMS(Int)=  0.00514476
 Iteration  2 RMS(Cart)=  0.00495703 RMS(Int)=  0.00032946
 Iteration  3 RMS(Cart)=  0.00000466 RMS(Int)=  0.00032942
 Iteration  4 RMS(Cart)=  0.00000000 RMS(Int)=  0.00032942
 Variable       Old X    -DE/DX   Delta X   Delta X   Delta X     New X
                                 (Linear)    (Quad)   (Total)
    R1        2.68257   0.01968   0.00000   0.03610   0.03610   2.71867
    R2        2.84959   0.00109   0.00000   0.00266   0.00266   2.85225
    R3        2.07919   0.00216   0.00000   0.00494   0.00494   2.08413
    R4        2.07553   0.00217   0.00000   0.00495   0.00495   2.08047
    R5        1.80926   0.01625   0.00000   0.02291   0.02291   1.83218
    R6        2.85430   0.00872   0.00000   0.02132   0.02132   2.87563
    R7        2.42836  -0.06385   0.00000  -0.24217  -0.24217   2.18619
    R8        2.06862   0.00162   0.00000   0.00364   0.00364   2.07226
    R9        2.89822  -0.00098   0.00000  -0.00257  -0.00257   2.89565
   R10        2.07232   0.00262   0.00000   0.00592   0.00592   2.07825
   R11        2.07163   0.00145   0.00000   0.00328   0.00328   2.07491
   R12        2.06621   0.00257   0.00000   0.00576   0.00576   2.07197
   R13        2.06779   0.00233   0.00000   0.00522   0.00522   2.07301
   R14        2.06227   0.00192   0.00000   0.00427   0.00427   2.06654
    A1        1.88791   0.00350   0.00000   0.01312   0.01312   1.90103
    A2        1.93255  -0.00035   0.00000   0.00183   0.00186   1.93441
    A3        1.93692  -0.00044   0.00000   0.00217   0.00219   1.93911
    A4        1.90462  -0.00175   0.00000  -0.00849  -0.00852   1.89610
    A5        1.91767  -0.00141   0.00000  -0.00618  -0.00623   1.91145
    A6        1.88411   0.00035   0.00000  -0.00285  -0.00291   1.88119
    A7        1.90982   0.00944   0.00000   0.04241   0.04241   1.95223
    A8        2.04982  -0.00475   0.00000  -0.02280  -0.02392   2.02590
    A9        1.79204   0.00215   0.00000   0.02605   0.02644   1.81848
   A10        1.97432  -0.00038   0.00000  -0.02385  -0.02532   1.94900
   A11        1.85048   0.00329   0.00000   0.03504   0.03535   1.88583
   A12        1.98394   0.00036   0.00000  -0.01758  -0.01921   1.96473
   A13        1.77277   0.00100   0.00000   0.02423   0.02467   1.79744
   A14        1.95937   0.00320   0.00000   0.01187   0.01185   1.97122
   A15        1.90564  -0.00092   0.00000  -0.00422  -0.00419   1.90145
   A16        1.90771  -0.00077   0.00000   0.00048   0.00044   1.90814
   A17        1.92178  -0.00145   0.00000  -0.00767  -0.00766   1.91412
   A18        1.90394  -0.00059   0.00000   0.00093   0.00088   1.90482
   A19        1.86286   0.00038   0.00000  -0.00203  -0.00204   1.86082
   A20        1.92916   0.00231   0.00000   0.01201   0.01202   1.94118
   A21        1.92895  -0.00065   0.00000  -0.00365  -0.00367   1.92528
   A22        1.93603  -0.00139   0.00000  -0.00711  -0.00713   1.92891
   A23        1.88329  -0.00048   0.00000  -0.00045  -0.00045   1.88284
   A24        1.90105  -0.00021   0.00000   0.00045   0.00047   1.90152
   A25        1.88389   0.00039   0.00000  -0.00135  -0.00139   1.88250
    D1        3.11309   0.00034   0.00000   0.00554   0.00554   3.11863
    D2       -1.08387   0.00017   0.00000   0.00439   0.00441  -1.07945
    D3        1.00824   0.00010   0.00000   0.00344   0.00341   1.01165
    D4        1.16862  -0.00289   0.00000  -0.04518  -0.04488   1.12374
    D5       -3.09300   0.00027   0.00000   0.00447   0.00451  -3.08849
    D6       -1.19690   0.00240   0.00000   0.03700   0.03665  -1.16025
    D7       -0.93512  -0.00353   0.00000  -0.05024  -0.04991  -0.98503
    D8        1.08644  -0.00037   0.00000  -0.00059  -0.00051   1.08593
    D9        2.98255   0.00176   0.00000   0.03194   0.03162   3.01417
   D10       -2.99776  -0.00209   0.00000  -0.03809  -0.03781  -3.03557
   D11       -0.97619   0.00107   0.00000   0.01156   0.01158  -0.96461
   D12        0.91992   0.00320   0.00000   0.04409   0.04372   0.96363
   D13       -1.49515   0.00335   0.00000   0.05587   0.05566  -1.43949
   D14        0.64112   0.00302   0.00000   0.05111   0.05089   0.69200
   D15        2.67297   0.00253   0.00000   0.04657   0.04634   2.71930
   D16        2.79868   0.00096   0.00000   0.01131   0.01132   2.81000
   D17       -1.34824   0.00062   0.00000   0.00654   0.00655  -1.34169
   D18        0.68361   0.00013   0.00000   0.00200   0.00200   0.68561
   D19        0.86626  -0.00230   0.00000  -0.02944  -0.02921   0.83705
   D20        3.00253  -0.00263   0.00000  -0.03420  -0.03399   2.96854
   D21       -1.24881  -0.00312   0.00000  -0.03874  -0.03853  -1.28734
   D22       -3.12597  -0.00033   0.00000  -0.00593  -0.00595  -3.13192
   D23       -1.04226   0.00013   0.00000  -0.00114  -0.00116  -1.04342
   D24        1.04663  -0.00070   0.00000  -0.00982  -0.00982   1.03681
   D25        1.03012  -0.00032   0.00000  -0.00323  -0.00323   1.02690
   D26        3.11383   0.00014   0.00000   0.00157   0.00157   3.11540
   D27       -1.08046  -0.00069   0.00000  -0.00711  -0.00709  -1.08755
   D28       -1.00874   0.00039   0.00000   0.00308   0.00308  -1.00566
   D29        1.07497   0.00085   0.00000   0.00787   0.00787   1.08284
   D30       -3.11932   0.00002   0.00000  -0.00081  -0.00079  -3.12011
         Item               Value     Threshold  Converged?
 Maximum Force            0.063847     0.000450     NO 
 RMS     Force            0.008605     0.000300     NO 
 Maximum Displacement     0.137334     0.001800     NO 
 RMS     Displacement     0.035560     0.001200     NO 
 Predicted change in Energy=-1.229377D-02
 GradGradGradGradGradGradGradGradGradGradGradGradGradGradGradGradGradGrad

                          Input orientation:                          
 ---------------------------------------------------------------------
 Center     Atomic      Atomic             Coordinates (Angstroms)
 Number     Number       Type             X           Y           Z
 ---------------------------------------------------------------------
      1          6           0        0.231645    1.299120   -0.138755
      2          8           0       -1.145032    1.673687    0.046188
      3          6           0        0.430720   -0.104623    0.378926
      4          6           0       -0.324203   -1.202164   -0.356682
      5          6           0       -1.778018   -1.341177    0.107081
      6          1           0       -1.316174    2.579380   -0.254557
      7          1           0        0.504474    1.322815   -1.207089
      8          1           0        0.904850    1.987135    0.395565
      9          1           0        1.563592   -0.297879    0.246167
     10          1           0        0.297379   -0.157986    1.466071
     11          1           0       -0.298375   -0.991710   -1.435809
     12          1           0        0.193226   -2.159574   -0.211011
     13          1           0       -2.291877   -2.144939   -0.433378
     14          1           0       -1.815232   -1.577804    1.177598
     15          1           0       -2.321176   -0.404879   -0.048514
 ---------------------------------------------------------------------
                    Distance matrix (angstroms):
                    1          2          3          4          5
     1  C    0.000000
     2  O    1.438661   0.000000
     3  C    1.509344   2.399186   0.000000
     4  C    2.571553   3.017712   1.521717   0.000000
     5  C    3.327214   3.081198   2.545876   1.532311   0.000000
     6  H    2.012019   0.969545   3.264478   3.910820   3.964197
     7  H    1.102876   2.101115   2.135055   2.790236   3.746154
     8  H    1.100939   2.102934   2.144884   3.499725   4.284701
     9  H    2.114865   3.356145   1.156881   2.178286   3.503452
    10  H    2.168627   2.729770   1.096591   2.190685   2.748466
    11  H    2.685363   3.165041   2.147502   1.099761   2.166098
    12  H    3.459663   4.068289   2.151105   1.097992   2.157953
    13  H    4.279779   4.015861   3.497893   2.183219   1.096440
    14  H    3.768180   3.507342   2.802220   2.172162   1.096988
    15  H    3.070612   2.390130   2.801034   2.172219   1.093565
                    6          7          8          9         10
     6  H    0.000000
     7  H    2.408534   0.000000
     8  H    2.388799   1.780483   0.000000
     9  H    4.101512   2.420812   2.382761   0.000000
    10  H    3.613487   3.062914   2.473165   1.763811   0.000000
    11  H    3.896660   2.460469   3.697999   2.603338   3.077487
    12  H    4.973719   3.635393   4.250828   2.356443   2.613390
    13  H    4.827336   4.521452   5.289635   4.328748   3.776260
    14  H    4.425190   4.413769   4.551836   3.731250   2.561684
    15  H    3.155676   3.508779   4.040567   3.897398   3.035088
                   11         12         13         14         15
    11  H    0.000000
    12  H    1.762302   0.000000
    13  H    2.511744   2.495075   0.000000
    14  H    3.078029   2.510099   1.773155   0.000000
    15  H    2.522040   3.070437   1.782354   1.770616   0.000000
 Stoichiometry    C4H10O
 Framework group  C1[X(C4H10O)]
 Deg. of freedom    39
 Full point group                 C1      NOp   1
 Largest Abelian subgroup         C1      NOp   1
 Largest concise Abelian subgroup C1      NOp   1
                         Standard orientation:                         
 ---------------------------------------------------------------------
 Center     Atomic      Atomic             Coordinates (Angstroms)
 Number     Number       Type             X           Y           Z
 ---------------------------------------------------------------------
      1          6           0       -1.379476    0.400700   -0.145552
      2          8           0       -1.362701   -1.025086    0.045753
      3          6           0       -0.086002    0.979487    0.374112
      4          6           0        1.179087    0.551349   -0.355182
      5          6           0        1.709921   -0.806501    0.116450
      6          1           0       -2.185653   -1.439433   -0.256050
      7          1           0       -1.473354    0.651840   -1.215342
      8          1           0       -2.227628    0.861704    0.383766
      9          1           0       -0.210440    2.121318    0.235870
     10          1           0       -0.001922    0.870706    1.462050
     11          1           0        0.973404    0.513687   -1.434880
     12          1           0        1.957329    1.312198   -0.210143
     13          1           0        2.625694   -1.082550   -0.419588
     14          1           0        1.943926   -0.772648    1.187654
     15          1           0        0.959074   -1.586345   -0.038333
 ---------------------------------------------------------------------
 Rotational constants (GHZ):      7.4630994      3.5033900      2.6678654
 Standard basis: 6-31G (6D, 7F)
 There are    65 symmetry adapted basis functions of A   symmetry.
 Integral buffers will be    131072 words long.
 Raffenetti 2 integral format.
 Two-electron integral symmetry is turned on.
    65 basis functions,   150 primitive gaussians,    65 cartesian basis functions
    21 alpha electrons       21 beta electrons
       nuclear repulsion energy       191.6950715845 Hartrees.
 NAtoms=   15 NActive=   15 NUniq=   15 SFac= 7.50D-01 NAtFMM=   80 NAOKFM=F Big=F
 One-electron integrals computed using PRISM.
 NBasis=    65 RedAO= T  NBF=    65
 NBsUse=    65 1.00D-06 NBFU=    65
 Initial guess read from the read-write file.
 B after Tr=     0.000000    0.000000    0.000000
         Rot=    1.000000    0.000000    0.000000    0.000000 Ang=   0.00 deg.
 Initial guess orbital symmetries:
       Occupied  (A) (A) (A) (A) (A) (A) (A) (A) (A) (A) (A) (A)
                 (A) (A) (A) (A) (A) (A) (A) (A) (A)
       Virtual   (A) (A) (A) (A) (A) (A) (A) (A) (A) (A) (A) (A)
                 (A) (A) (A) (A) (A) (A) (A) (A) (A) (A) (A) (A)
                 (A) (A) (A) (A) (A) (A) (A) (A) (A) (A) (A) (A)
                 (A) (A) (A) (A) (A) (A) (A) (A)
 Harris functional with IExCor= 1009 diagonalized for initial guess.
 ExpMin= 1.61D-01 ExpMax= 5.48D+03 ExpMxC= 8.25D+02 IAcc=1 IRadAn=         1 AccDes= 0.00D+00
 HarFok:  IExCor= 1009 AccDes= 0.00D+00 IRadAn=         1 IDoV= 1
 ScaDFX=  1.000000  1.000000  1.000000  1.000000
 FoFCou: FMM=F IPFlag=           0 FMFlag=      100000 FMFlg1=           0
         NFxFlg=           0 DoJE=T BraDBF=F KetDBF=T FulRan=T
         Omega=  0.000000  0.000000  1.000000  0.000000  0.000000 ICntrl=     500 IOpCl=  0
         NMat0=    1 NMatS0=    1 NMatT0=    0 NMatD0=    1 NMtDS0=    0 NMtDT0=    0
         I1Cent=           4 NGrid=           0.
 Petite list used in FoFCou.
 Requested convergence on RMS density matrix=1.00D-08 within 128 cycles.
 Requested convergence on MAX density matrix=1.00D-06.
 Requested convergence on             energy=1.00D-06.
 No special actions if energy rises.
 Keep R1 ints in memory in canonical form, NReq=3343693.
 Integral accuracy reduced to 1.0D-05 until final iterations.
 Initial convergence to 1.0D-05 achieved.  Increase integral accuracy.
 SCF Done:  E(RM06) =  -233.428990097     A.U. after   14 cycles
             Convg  =    0.3693D-08             -V/T =  2.0055
 Calling FoFJK, ICntrl=      2127 FMM=F ISym2X=0 I1Cent= 0 IOpClX= 0 NMat=1 NMatS=1 NMatT=0.
 ***** Axes restored to original set *****
 -------------------------------------------------------------------
 Center     Atomic                   Forces (Hartrees/Bohr)
 Number     Number              X              Y              Z
 -------------------------------------------------------------------
      1        6          -0.002140162   -0.000270003    0.000585160
      2        8          -0.002124392   -0.001969818    0.001821940
      3        6           0.045335407   -0.006231555   -0.004192422
      4        6          -0.008729683   -0.000179163    0.002674859
      5        6           0.001187397   -0.000908609   -0.002141497
      6        1           0.000045905    0.002539783   -0.001229271
      7        1          -0.000392097    0.000599362   -0.000522588
      8        1          -0.000194375    0.000734439    0.000192639
      9        1          -0.026446709    0.004137898    0.002144590
     10        1          -0.007446632    0.001277040    0.000766550
     11        1           0.000452981    0.000034718   -0.001042544
     12        1           0.000795798   -0.000523283   -0.000093043
     13        1          -0.000271201   -0.000384668   -0.000023084
     14        1          -0.000135003   -0.000010170    0.000746669
     15        1           0.000062766    0.001154029    0.000312042
 -------------------------------------------------------------------
 Cartesian Forces:  Max     0.045335407 RMS     0.008180270

 GradGradGradGradGradGradGradGradGradGradGradGradGradGradGradGradGradGrad
 Berny optimization.
 Using GEDIIS/GDIIS optimizer.
 Internal  Forces:  Max     0.026841437 RMS     0.003485078
 Search for a local minimum.
 Step number   2 out of a maximum of   79
 All quantities printed in internal units (Hartrees-Bohrs-Radians)
 Mixed Optimization -- RFO/linear search
 Update second derivatives using D2CorX and points    1    2
 DE= -1.42D-02 DEPred=-1.23D-02 R= 1.16D+00
 SS=  1.41D+00  RLast= 3.00D-01 DXNew= 5.0454D-01 8.9989D-01
 Trust test= 1.16D+00 RLast= 3.00D-01 DXMaxT set to 5.05D-01
 Use linear search instead of GDIIS.
     Eigenvalues ---    0.00320   0.00629   0.00661   0.01433   0.03009
     Eigenvalues ---    0.03595   0.04903   0.04953   0.05394   0.05481
     Eigenvalues ---    0.05619   0.06211   0.08436   0.09165   0.11114
     Eigenvalues ---    0.12264   0.12870   0.13706   0.14897   0.16000
     Eigenvalues ---    0.16000   0.16006   0.17421   0.21841   0.21917
     Eigenvalues ---    0.22134   0.29090   0.31227   0.31584   0.33660
     Eigenvalues ---    0.33875   0.34051   0.34096   0.34272   0.34331
     Eigenvalues ---    0.34438   0.34658   0.43563   0.565291000.00000
     Eigenvalues --- 1000.000001000.000001000.000001000.000001000.00000
     Eigenvalues --- 1000.000001000.000001000.000001000.000001000.00000
     Eigenvalues --- 1000.000001000.000001000.000001000.000001000.00000
     Eigenvalues --- 1000.000001000.000001000.000001000.000001000.00000
     Eigenvalues --- 1000.000001000.000001000.000001000.000001000.00000
     Eigenvalues --- 1000.000001000.000001000.000001000.00000
 RFO step:  Lambda=-9.83596117D-04 EMin= 3.20495468D-03
 Quartic linear search produced a step of  0.45935.
 Iteration  1 RMS(Cart)=  0.02131358 RMS(Int)=  0.00065089
 Iteration  2 RMS(Cart)=  0.00064649 RMS(Int)=  0.00041404
 Iteration  3 RMS(Cart)=  0.00000041 RMS(Int)=  0.00041404
 Variable       Old X    -DE/DX   Delta X   Delta X   Delta X     New X
                                 (Linear)    (Quad)   (Total)
    R1        2.71867   0.00228   0.01658  -0.01387   0.00271   2.72139
    R2        2.85225   0.00191   0.00122   0.00712   0.00834   2.86059
    R3        2.08413   0.00042   0.00227  -0.00130   0.00097   2.08511
    R4        2.08047   0.00043   0.00227  -0.00127   0.00100   2.08147
    R5        1.83218   0.00274   0.01052  -0.00603   0.00449   1.83667
    R6        2.87563   0.00366   0.00980   0.00339   0.01318   2.88881
    R7        2.18619  -0.02684  -0.11124  -0.02529  -0.13654   2.04965
    R8        2.07226   0.00161   0.00167   0.00455   0.00622   2.07848
    R9        2.89565  -0.00120  -0.00118  -0.00431  -0.00549   2.89016
   R10        2.07825   0.00104   0.00272   0.00071   0.00343   2.08168
   R11        2.07491   0.00083   0.00150   0.00148   0.00299   2.07789
   R12        2.07197   0.00043   0.00265  -0.00179   0.00086   2.07283
   R13        2.07301   0.00074   0.00240  -0.00015   0.00225   2.07526
   R14        2.06654   0.00088   0.00196   0.00104   0.00301   2.06954
    A1        1.90103  -0.00011   0.00603  -0.01149  -0.00544   1.89559
    A2        1.93441  -0.00041   0.00085  -0.00918  -0.00829   1.92612
    A3        1.93911  -0.00052   0.00100  -0.01293  -0.01191   1.92720
    A4        1.89610   0.00064  -0.00392   0.01623   0.01223   1.90833
    A5        1.91145   0.00060  -0.00286   0.01228   0.00932   1.92076
    A6        1.88119  -0.00017  -0.00134   0.00623   0.00469   1.88588
    A7        1.95223  -0.00104   0.01948  -0.04222  -0.02274   1.92949
    A8        2.02590  -0.00285  -0.01099  -0.01202  -0.02431   2.00159
    A9        1.81848   0.00214   0.01214   0.01489   0.02746   1.84594
   A10        1.94900  -0.00056  -0.01163  -0.00477  -0.01840   1.93060
   A11        1.88583   0.00126   0.01624  -0.00496   0.01178   1.89761
   A12        1.96473  -0.00069  -0.00882  -0.01253  -0.02328   1.94145
   A13        1.79744   0.00165   0.01133   0.02705   0.03888   1.83632
   A14        1.97122   0.00114   0.00545   0.00004   0.00548   1.97670
   A15        1.90145  -0.00052  -0.00192  -0.00222  -0.00415   1.89731
   A16        1.90814  -0.00056   0.00020  -0.00677  -0.00661   1.90153
   A17        1.91412  -0.00029  -0.00352   0.00615   0.00264   1.91677
   A18        1.90482   0.00015   0.00041   0.00379   0.00419   1.90901
   A19        1.86082   0.00001  -0.00094  -0.00111  -0.00208   1.85874
   A20        1.94118   0.00035   0.00552  -0.00533   0.00020   1.94138
   A21        1.92528   0.00010  -0.00168   0.00280   0.00110   1.92638
   A22        1.92891  -0.00066  -0.00327  -0.00035  -0.00363   1.92528
   A23        1.88284  -0.00013  -0.00021  -0.00105  -0.00126   1.88158
   A24        1.90152   0.00039   0.00022   0.00487   0.00509   1.90661
   A25        1.88250  -0.00004  -0.00064  -0.00079  -0.00145   1.88106
    D1        3.11863   0.00011   0.00254  -0.00328  -0.00072   3.11792
    D2       -1.07945   0.00059   0.00203   0.00386   0.00588  -1.07357
    D3        1.01165  -0.00024   0.00157  -0.00291  -0.00135   1.01030
    D4        1.12374  -0.00180  -0.02062   0.00649  -0.01376   1.10998
    D5       -3.08849  -0.00033   0.00207   0.00400   0.00606  -3.08243
    D6       -1.16025   0.00246   0.01683   0.04095   0.05743  -1.10282
    D7       -0.98503  -0.00163  -0.02292   0.01475  -0.00774  -0.99277
    D8        1.08593  -0.00016  -0.00024   0.01226   0.01208   1.09800
    D9        3.01417   0.00263   0.01452   0.04922   0.06345   3.07762
   D10       -3.03557  -0.00213  -0.01737  -0.00900  -0.02606  -3.06162
   D11       -0.96461  -0.00066   0.00532  -0.01149  -0.00624  -0.97085
   D12        0.96363   0.00213   0.02008   0.02546   0.04512   1.00876
   D13       -1.43949   0.00236   0.02557  -0.01279   0.01241  -1.42707
   D14        0.69200   0.00240   0.02337  -0.00650   0.01650   0.70850
   D15        2.71930   0.00180   0.02129  -0.01282   0.00811   2.72741
   D16        2.81000   0.00049   0.00520  -0.02084  -0.01568   2.79433
   D17       -1.34169   0.00052   0.00301  -0.01456  -0.01159  -1.35329
   D18        0.68561  -0.00008   0.00092  -0.02088  -0.01998   0.66563
   D19        0.83705  -0.00188  -0.01342  -0.04389  -0.05691   0.78015
   D20        2.96854  -0.00185  -0.01561  -0.03760  -0.05282   2.91572
   D21       -1.28734  -0.00245  -0.01770  -0.04392  -0.06121  -1.34855
   D22       -3.13192  -0.00010  -0.00273   0.00032  -0.00242  -3.13435
   D23       -1.04342   0.00003  -0.00053  -0.00260  -0.00315  -1.04657
   D24        1.03681  -0.00038  -0.00451  -0.00203  -0.00653   1.03028
   D25        1.02690  -0.00001  -0.00148  -0.00128  -0.00277   1.02413
   D26        3.11540   0.00012   0.00072  -0.00421  -0.00349   3.11191
   D27       -1.08755  -0.00029  -0.00326  -0.00363  -0.00688  -1.09443
   D28       -1.00566   0.00006   0.00141  -0.00560  -0.00418  -1.00984
   D29        1.08284   0.00019   0.00361  -0.00852  -0.00490   1.07794
   D30       -3.12011  -0.00022  -0.00036  -0.00794  -0.00829  -3.12840
         Item               Value     Threshold  Converged?
 Maximum Force            0.026841     0.000450     NO 
 RMS     Force            0.003485     0.000300     NO 
 Maximum Displacement     0.080652     0.001800     NO 
 RMS     Displacement     0.021589     0.001200     NO 
 Predicted change in Energy=-3.348001D-03
 GradGradGradGradGradGradGradGradGradGradGradGradGradGradGradGradGradGrad

                          Input orientation:                          
 ---------------------------------------------------------------------
 Center     Atomic      Atomic             Coordinates (Angstroms)
 Number     Number       Type             X           Y           Z
 ---------------------------------------------------------------------
      1          6           0        0.238048    1.290785   -0.143912
      2          8           0       -1.144771    1.641666    0.052492
      3          6           0        0.459653   -0.111903    0.380325
      4          6           0       -0.318943   -1.200114   -0.358926
      5          6           0       -1.769162   -1.328993    0.109411
      6          1           0       -1.313978    2.547734   -0.255801
      7          1           0        0.494036    1.324636   -1.216663
      8          1           0        0.893473    1.999928    0.385962
      9          1           0        1.520913   -0.304778    0.266535
     10          1           0        0.273059   -0.154507    1.463426
     11          1           0       -0.292980   -0.981757   -1.438332
     12          1           0        0.195385   -2.162365   -0.222538
     13          1           0       -2.293890   -2.122572   -0.436547
     14          1           0       -1.805031   -1.576719    1.178684
     15          1           0       -2.300013   -0.381642   -0.032316
 ---------------------------------------------------------------------
                    Distance matrix (angstroms):
                    1          2          3          4          5
     1  C    0.000000
     2  O    1.440097   0.000000
     3  C    1.513758   2.399303   0.000000
     4  C    2.561454   2.987803   1.528694   0.000000
     5  C    3.310030   3.036103   2.553883   1.529407   0.000000
     6  H    2.000306   0.971924   3.259462   3.879059   3.920407
     7  H    1.103391   2.096890   2.148300   2.787653   3.731257
     8  H    1.101468   2.096185   2.155936   3.502153   4.271747
     9  H    2.088068   3.307617   1.084630   2.139602   3.449391
    10  H    2.161857   2.688347   1.099882   2.182825   2.717249
    11  H    2.668700   3.135355   2.151887   1.101577   2.166840
    12  H    3.454308   4.042562   2.153527   1.099573   2.159663
    13  H    4.259971   3.965996   3.506005   2.181140   1.096894
    14  H    3.761118   3.473075   2.812803   2.171298   1.098180
    15  H    3.041581   2.331427   2.803353   2.168228   1.095155
                    6          7          8          9         10
     6  H    0.000000
     7  H    2.384982   0.000000
     8  H    2.363217   1.784370   0.000000
     9  H    4.055400   2.430914   2.391571   0.000000
    10  H    3.574428   3.069131   2.487454   1.735588   0.000000
    11  H    3.859809   2.447034   3.691363   2.579744   3.070007
    12  H    4.946142   3.638221   4.264069   2.333848   2.622976
    13  H    4.775422   4.501594   5.275492   4.283856   3.751321
    14  H    4.394314   4.409224   4.550026   3.675834   2.534211
    15  H    3.098944   3.481490   4.005644   3.833366   2.984885
                   11         12         13         14         15
    11  H    0.000000
    12  H    1.763658   0.000000
    13  H    2.511707   2.498774   0.000000
    14  H    3.080430   2.511587   1.773671   0.000000
    15  H    2.522935   3.071510   1.787255   1.771930   0.000000
 Stoichiometry    C4H10O
 Framework group  C1[X(C4H10O)]
 Deg. of freedom    39
 Full point group                 C1      NOp   1
 Largest Abelian subgroup         C1      NOp   1
 Largest concise Abelian subgroup C1      NOp   1
                         Standard orientation:                         
 ---------------------------------------------------------------------
 Center     Atomic      Atomic             Coordinates (Angstroms)
 Number     Number       Type             X           Y           Z
 ---------------------------------------------------------------------
      1          6           0       -1.378486   -0.396762    0.150079
      2          8           0       -1.331566    1.028664   -0.049513
      3          6           0       -0.094503   -1.000874   -0.377085
      4          6           0        1.169738   -0.554098    0.357076
      5          6           0        1.695341    0.802053   -0.115873
      6          1           0       -2.153808    1.443859    0.260595
      7          1           0       -1.478681   -0.630951    1.223665
      8          1           0       -2.243674   -0.830215   -0.376040
      9          1           0       -0.204031   -2.073659   -0.260653
     10          1           0       -0.005235   -0.835797   -1.460838
     11          1           0        0.956315   -0.516007    1.437109
     12          1           0        1.950522   -1.316055    0.219749
     13          1           0        2.605335    1.086515    0.426501
     14          1           0        1.939762    0.765331   -1.185877
     15          1           0        0.933482    1.575750    0.026707
 ---------------------------------------------------------------------
 Rotational constants (GHZ):      7.4306015      3.5627559      2.7007685
 Standard basis: 6-31G (6D, 7F)
 There are    65 symmetry adapted basis functions of A   symmetry.
 Integral buffers will be    131072 words long.
 Raffenetti 2 integral format.
 Two-electron integral symmetry is turned on.
    65 basis functions,   150 primitive gaussians,    65 cartesian basis functions
    21 alpha electrons       21 beta electrons
       nuclear repulsion energy       192.2805135082 Hartrees.
 NAtoms=   15 NActive=   15 NUniq=   15 SFac= 7.50D-01 NAtFMM=   80 NAOKFM=F Big=F
 One-electron integrals computed using PRISM.
 NBasis=    65 RedAO= T  NBF=    65
 NBsUse=    65 1.00D-06 NBFU=    65
 Initial guess read from the read-write file.
 B after Tr=     0.000000    0.000000    0.000000
         Rot=    1.000000    0.000000    0.000000    0.000000 Ang=   0.00 deg.
 Initial guess orbital symmetries:
       Occupied  (A) (A) (A) (A) (A) (A) (A) (A) (A) (A) (A) (A)
                 (A) (A) (A) (A) (A) (A) (A) (A) (A)
       Virtual   (A) (A) (A) (A) (A) (A) (A) (A) (A) (A) (A) (A)
                 (A) (A) (A) (A) (A) (A) (A) (A) (A) (A) (A) (A)
                 (A) (A) (A) (A) (A) (A) (A) (A) (A) (A) (A) (A)
                 (A) (A) (A) (A) (A) (A) (A) (A)
 Harris functional with IExCor= 1009 diagonalized for initial guess.
 ExpMin= 1.61D-01 ExpMax= 5.48D+03 ExpMxC= 8.25D+02 IAcc=1 IRadAn=         1 AccDes= 0.00D+00
 HarFok:  IExCor= 1009 AccDes= 0.00D+00 IRadAn=         1 IDoV= 1
 ScaDFX=  1.000000  1.000000  1.000000  1.000000
 FoFCou: FMM=F IPFlag=           0 FMFlag=      100000 FMFlg1=           0
         NFxFlg=           0 DoJE=T BraDBF=F KetDBF=T FulRan=T
         Omega=  0.000000  0.000000  1.000000  0.000000  0.000000 ICntrl=     500 IOpCl=  0
         NMat0=    1 NMatS0=    1 NMatT0=    0 NMatD0=    1 NMtDS0=    0 NMtDT0=    0
         I1Cent=           4 NGrid=           0.
 Petite list used in FoFCou.
 Requested convergence on RMS density matrix=1.00D-08 within 128 cycles.
 Requested convergence on MAX density matrix=1.00D-06.
 Requested convergence on             energy=1.00D-06.
 No special actions if energy rises.
 Keep R1 ints in memory in canonical form, NReq=3343693.
 Integral accuracy reduced to 1.0D-05 until final iterations.
 Initial convergence to 1.0D-05 achieved.  Increase integral accuracy.
 SCF Done:  E(RM06) =  -233.431205543     A.U. after   16 cycles
             Convg  =    0.2884D-08             -V/T =  2.0053
 Calling FoFJK, ICntrl=      2127 FMM=F ISym2X=0 I1Cent= 0 IOpClX= 0 NMat=1 NMatS=1 NMatT=0.
 ***** Axes restored to original set *****
 -------------------------------------------------------------------
 Center     Atomic                   Forces (Hartrees/Bohr)
 Number     Number              X              Y              Z
 -------------------------------------------------------------------
      1        6          -0.001956068   -0.001018996    0.002086491
      2        8          -0.001497203    0.001605002    0.000289320
      3        6           0.000463718    0.001458684   -0.000591241
      4        6          -0.004323221   -0.000095109    0.001866537
      5        6           0.000034820   -0.000407641   -0.001249664
      6        1          -0.001454789    0.000697299   -0.000124064
      7        1           0.000653489   -0.000298882    0.000181171
      8        1           0.000744217   -0.000277331   -0.000235952
      9        1           0.011507687   -0.002323990   -0.001269175
     10        1          -0.004351210    0.001372416   -0.000994260
     11        1           0.000096251   -0.000358331   -0.000130162
     12        1           0.000037211   -0.000182267   -0.000301704
     13        1          -0.000270597    0.000001425    0.000045841
     14        1          -0.000026013    0.000083502    0.000124767
     15        1           0.000341709   -0.000255780    0.000302094
 -------------------------------------------------------------------
 Cartesian Forces:  Max     0.011507687 RMS     0.002142032

 GradGradGradGradGradGradGradGradGradGradGradGradGradGradGradGradGradGrad
 Berny optimization.
 Using GEDIIS/GDIIS optimizer.
 Internal  Forces:  Max     0.011800503 RMS     0.001698237
 Search for a local minimum.
 Step number   3 out of a maximum of   79
 All quantities printed in internal units (Hartrees-Bohrs-Radians)
 Mixed Optimization -- RFO/linear search
 Update second derivatives using D2CorX and points    1    2    3
 DE= -2.22D-03 DEPred=-3.35D-03 R= 6.62D-01
 SS=  1.41D+00  RLast= 2.14D-01 DXNew= 8.4853D-01 6.4275D-01
 Trust test= 6.62D-01 RLast= 2.14D-01 DXMaxT set to 6.43D-01
 Use linear search instead of GDIIS.
     Eigenvalues ---    0.00321   0.00623   0.00659   0.01433   0.03233
     Eigenvalues ---    0.03564   0.04871   0.04927   0.05421   0.05483
     Eigenvalues ---    0.05633   0.06141   0.08496   0.08858   0.11220
     Eigenvalues ---    0.12305   0.12564   0.13689   0.15992   0.16000
     Eigenvalues ---    0.16000   0.16542   0.21716   0.21910   0.22082
     Eigenvalues ---    0.28459   0.29329   0.31551   0.32421   0.33677
     Eigenvalues ---    0.33875   0.34043   0.34097   0.34267   0.34330
     Eigenvalues ---    0.34442   0.34701   0.43088   0.562201000.00000
     Eigenvalues --- 1000.000001000.000001000.000001000.000001000.00000
     Eigenvalues --- 1000.000001000.000001000.000001000.000001000.00000
     Eigenvalues --- 1000.000001000.000001000.000001000.000001000.00000
     Eigenvalues --- 1000.000001000.000001000.000001000.000001000.00000
     Eigenvalues --- 1000.000001000.000001000.000001000.000001000.00000
     Eigenvalues --- 1000.000001000.000001000.000001000.00000
 RFO step:  Lambda=-1.22299153D-03 EMin= 3.20557783D-03
 Quartic linear search produced a step of -0.13891.
 Iteration  1 RMS(Cart)=  0.02266816 RMS(Int)=  0.00046460
 Iteration  2 RMS(Cart)=  0.00058559 RMS(Int)=  0.00022966
 Iteration  3 RMS(Cart)=  0.00000023 RMS(Int)=  0.00022966
 Variable       Old X    -DE/DX   Delta X   Delta X   Delta X     New X
                                 (Linear)    (Quad)   (Total)
    R1        2.72139   0.00348  -0.00038   0.00921   0.00883   2.73022
    R2        2.86059   0.00046  -0.00116   0.00273   0.00158   2.86216
    R3        2.08511  -0.00004  -0.00014   0.00034   0.00020   2.08531
    R4        2.08147   0.00014  -0.00014   0.00079   0.00065   2.08213
    R5        1.83667   0.00094  -0.00062   0.00326   0.00264   1.83931
    R6        2.88881   0.00262  -0.00183   0.01041   0.00858   2.89739
    R7        2.04965   0.01180   0.01897   0.01240   0.03136   2.08101
    R8        2.07848  -0.00029  -0.00086   0.00050  -0.00037   2.07811
    R9        2.89016  -0.00033   0.00076  -0.00201  -0.00125   2.88891
   R10        2.08168   0.00005  -0.00048   0.00102   0.00054   2.08222
   R11        2.07789   0.00015  -0.00041   0.00103   0.00062   2.07851
   R12        2.07283   0.00011  -0.00012   0.00073   0.00061   2.07344
   R13        2.07526   0.00010  -0.00031   0.00091   0.00060   2.07585
   R14        2.06954  -0.00045  -0.00042  -0.00038  -0.00080   2.06874
    A1        1.89559   0.00153   0.00076   0.00705   0.00780   1.90339
    A2        1.92612   0.00009   0.00115   0.00257   0.00373   1.92985
    A3        1.92720  -0.00015   0.00165   0.00024   0.00190   1.92910
    A4        1.90833  -0.00091  -0.00170  -0.00389  -0.00561   1.90272
    A5        1.92076  -0.00064  -0.00129  -0.00268  -0.00399   1.91678
    A6        1.88588   0.00005  -0.00065  -0.00344  -0.00410   1.88178
    A7        1.92949   0.00246   0.00316   0.01195   0.01511   1.94460
    A8        2.00159   0.00009   0.00338  -0.01171  -0.00920   1.99239
    A9        1.84594   0.00092  -0.00381   0.03135   0.02752   1.87346
   A10        1.93060  -0.00155   0.00256  -0.03755  -0.03588   1.89472
   A11        1.89761   0.00041  -0.00164   0.02633   0.02461   1.92222
   A12        1.94145  -0.00081   0.00323  -0.03205  -0.02983   1.91162
   A13        1.83632   0.00119  -0.00540   0.03326   0.02849   1.86481
   A14        1.97670   0.00135  -0.00076   0.00814   0.00737   1.98407
   A15        1.89731  -0.00035   0.00058  -0.00200  -0.00142   1.89589
   A16        1.90153  -0.00030   0.00092  -0.00060   0.00031   1.90184
   A17        1.91677  -0.00041  -0.00037  -0.00185  -0.00222   1.91455
   A18        1.90901  -0.00038  -0.00058   0.00042  -0.00018   1.90883
   A19        1.85874   0.00002   0.00029  -0.00491  -0.00462   1.85412
   A20        1.94138   0.00039  -0.00003   0.00382   0.00379   1.94517
   A21        1.92638  -0.00007  -0.00015  -0.00097  -0.00112   1.92526
   A22        1.92528  -0.00017   0.00050  -0.00236  -0.00186   1.92342
   A23        1.88158  -0.00009   0.00017  -0.00001   0.00017   1.88174
   A24        1.90661  -0.00001  -0.00071   0.00187   0.00116   1.90778
   A25        1.88106  -0.00007   0.00020  -0.00247  -0.00228   1.87878
    D1        3.11792   0.00019   0.00010   0.00870   0.00880   3.12671
    D2       -1.07357   0.00008  -0.00082   0.00986   0.00906  -1.06451
    D3        1.01030   0.00010   0.00019   0.00738   0.00756   1.01786
    D4        1.10998  -0.00105   0.00191  -0.02458  -0.02250   1.08748
    D5       -3.08243   0.00016  -0.00084   0.02306   0.02236  -3.06007
    D6       -1.10282   0.00131  -0.00798   0.06091   0.05261  -1.05021
    D7       -0.99277  -0.00154   0.00107  -0.02966  -0.02841  -1.02117
    D8        1.09800  -0.00033  -0.00168   0.01799   0.01646   1.11447
    D9        3.07762   0.00082  -0.00881   0.05583   0.04671   3.12433
   D10       -3.06162  -0.00066   0.00362  -0.02150  -0.01771  -3.07934
   D11       -0.97085   0.00055   0.00087   0.02615   0.02715  -0.94370
   D12        1.00876   0.00170  -0.00627   0.06399   0.05740   1.06616
   D13       -1.42707   0.00146  -0.00172   0.04333   0.04149  -1.38558
   D14        0.70850   0.00159  -0.00229   0.04500   0.04259   0.75109
   D15        2.72741   0.00126  -0.00113   0.03776   0.03651   2.76392
   D16        2.79433  -0.00005   0.00218  -0.00755  -0.00546   2.78886
   D17       -1.35329   0.00008   0.00161  -0.00588  -0.00436  -1.35765
   D18        0.66563  -0.00026   0.00278  -0.01312  -0.01044   0.65518
   D19        0.78015  -0.00128   0.00790  -0.04542  -0.03730   0.74285
   D20        2.91572  -0.00116   0.00734  -0.04376  -0.03620   2.87952
   D21       -1.34855  -0.00149   0.00850  -0.05100  -0.04228  -1.39083
   D22       -3.13435  -0.00006   0.00034  -0.01504  -0.01471   3.13413
   D23       -1.04657   0.00004   0.00044  -0.01321  -0.01278  -1.05935
   D24        1.03028  -0.00019   0.00091  -0.01837  -0.01746   1.01281
   D25        1.02413  -0.00024   0.00038  -0.01673  -0.01635   1.00778
   D26        3.11191  -0.00014   0.00048  -0.01490  -0.01442   3.09749
   D27       -1.09443  -0.00037   0.00096  -0.02006  -0.01910  -1.11353
   D28       -1.00984   0.00020   0.00058  -0.00999  -0.00941  -1.01924
   D29        1.07794   0.00029   0.00068  -0.00816  -0.00748   1.07046
   D30       -3.12840   0.00006   0.00115  -0.01331  -0.01216  -3.14056
         Item               Value     Threshold  Converged?
 Maximum Force            0.011801     0.000450     NO 
 RMS     Force            0.001698     0.000300     NO 
 Maximum Displacement     0.083992     0.001800     NO 
 RMS     Displacement     0.022970     0.001200     NO 
 Predicted change in Energy=-6.169821D-04
 GradGradGradGradGradGradGradGradGradGradGradGradGradGradGradGradGradGrad

                          Input orientation:                          
 ---------------------------------------------------------------------
 Center     Atomic      Atomic             Coordinates (Angstroms)
 Number     Number       Type             X           Y           Z
 ---------------------------------------------------------------------
      1          6           0        0.234366    1.285165   -0.143732
      2          8           0       -1.154931    1.622146    0.065227
      3          6           0        0.485789   -0.117181    0.370272
      4          6           0       -0.313436   -1.204755   -0.357209
      5          6           0       -1.766252   -1.312646    0.106196
      6          1           0       -1.351833    2.524548   -0.241781
      7          1           0        0.485791    1.325060   -1.217463
      8          1           0        0.888430    1.998844    0.382441
      9          1           0        1.565360   -0.312815    0.275660
     10          1           0        0.249967   -0.143924    1.444044
     11          1           0       -0.283096   -0.999361   -1.439334
     12          1           0        0.188028   -2.173138   -0.213866
     13          1           0       -2.305300   -2.095248   -0.442300
     14          1           0       -1.807953   -1.561946    1.175215
     15          1           0       -2.279130   -0.355350   -0.031570
 ---------------------------------------------------------------------
                    Distance matrix (angstroms):
                    1          2          3          4          5
     1  C    0.000000
     2  O    1.444772   0.000000
     3  C    1.514592   2.410451   0.000000
     4  C    2.558391   2.979587   1.533234   0.000000
     5  C    3.288398   2.998066   2.563310   1.528744   0.000000
     6  H    2.015368   0.973320   3.275697   3.872892   3.875163
     7  H    1.103497   2.103693   2.144985   2.789043   3.712312
     8  H    1.101815   2.101869   2.154026   3.500659   4.253188
     9  H    2.121550   3.344897   1.101225   2.173926   3.482530
    10  H    2.136251   2.644594   1.099688   2.165017   2.687170
    11  H    2.676828   3.145807   2.155016   1.101862   2.164847
    12  H    3.459324   4.035544   2.157970   1.099899   2.159188
    13  H    4.238660   3.924277   3.516133   2.183515   1.097217
    14  H    3.743892   3.434669   2.827813   2.170136   1.098495
    15  H    3.003586   2.276770   2.804100   2.165983   1.094733
                    6          7          8          9         10
     6  H    0.000000
     7  H    2.401581   0.000000
     8  H    2.384281   1.782077   0.000000
     9  H    4.102241   2.465262   2.411099   0.000000
    10  H    3.539563   3.049122   2.475093   1.767457   0.000000
    11  H    3.872243   2.458321   3.698725   2.613299   3.054471
    12  H    4.943703   3.651473   4.272186   2.365899   2.621108
    13  H    4.721421   4.482139   5.257537   4.321404   3.727646
    14  H    4.349178   4.395563   4.536319   3.707933   2.513581
    15  H    3.032800   3.445999   3.968258   3.856980   2.935722
                   11         12         13         14         15
    11  H    0.000000
    12  H    1.761102   0.000000
    13  H    2.506861   2.504982   0.000000
    14  H    3.078564   2.507397   1.774294   0.000000
    15  H    2.526005   3.069927   1.787912   1.770370   0.000000
 Stoichiometry    C4H10O
 Framework group  C1[X(C4H10O)]
 Deg. of freedom    39
 Full point group                 C1      NOp   1
 Largest Abelian subgroup         C1      NOp   1
 Largest concise Abelian subgroup C1      NOp   1
                         Standard orientation:                         
 ---------------------------------------------------------------------
 Center     Atomic      Atomic             Coordinates (Angstroms)
 Number     Number       Type             X           Y           Z
 ---------------------------------------------------------------------
      1          6           0        1.373318    0.395152    0.153576
      2          8           0        1.314516   -1.033741   -0.051790
      3          6           0        0.098670    1.022996   -0.370899
      4          6           0       -1.172403    0.557597    0.349228
      5          6           0       -1.674552   -0.810072   -0.113791
      6          1           0        2.125199   -1.471565    0.261984
      7          1           0        1.473833    0.628755    1.227369
      8          1           0        2.243572    0.824968   -0.367874
      9          1           0        0.208465    2.114839   -0.278591
     10          1           0        0.015108    0.800751   -1.444649
     11          1           0       -0.974017    0.533005    1.432804
     12          1           0       -1.963416    1.306812    0.198384
     13          1           0       -2.579398   -1.110239    0.429384
     14          1           0       -1.918361   -0.784224   -1.184575
     15          1           0       -0.897310   -1.567207    0.031403
 ---------------------------------------------------------------------
 Rotational constants (GHZ):      7.3272347      3.6175479      2.7131717
 Standard basis: 6-31G (6D, 7F)
 There are    65 symmetry adapted basis functions of A   symmetry.
 Integral buffers will be    131072 words long.
 Raffenetti 2 integral format.
 Two-electron integral symmetry is turned on.
    65 basis functions,   150 primitive gaussians,    65 cartesian basis functions
    21 alpha electrons       21 beta electrons
       nuclear repulsion energy       192.2884948203 Hartrees.
 NAtoms=   15 NActive=   15 NUniq=   15 SFac= 7.50D-01 NAtFMM=   80 NAOKFM=F Big=F
 One-electron integrals computed using PRISM.
 NBasis=    65 RedAO= T  NBF=    65
 NBsUse=    65 1.00D-06 NBFU=    65
 Initial guess read from the read-write file.
 B after Tr=     0.000000    0.000000    0.000000
         Rot=    1.000000    0.000000    0.000000    0.000000 Ang=   0.00 deg.
 Initial guess orbital symmetries:
       Occupied  (A) (A) (A) (A) (A) (A) (A) (A) (A) (A) (A) (A)
                 (A) (A) (A) (A) (A) (A) (A) (A) (A)
       Virtual   (A) (A) (A) (A) (A) (A) (A) (A) (A) (A) (A) (A)
                 (A) (A) (A) (A) (A) (A) (A) (A) (A) (A) (A) (A)
                 (A) (A) (A) (A) (A) (A) (A) (A) (A) (A) (A) (A)
                 (A) (A) (A) (A) (A) (A) (A) (A)
 Harris functional with IExCor= 1009 diagonalized for initial guess.
 ExpMin= 1.61D-01 ExpMax= 5.48D+03 ExpMxC= 8.25D+02 IAcc=1 IRadAn=         1 AccDes= 0.00D+00
 HarFok:  IExCor= 1009 AccDes= 0.00D+00 IRadAn=         1 IDoV= 1
 ScaDFX=  1.000000  1.000000  1.000000  1.000000
 FoFCou: FMM=F IPFlag=           0 FMFlag=      100000 FMFlg1=           0
         NFxFlg=           0 DoJE=T BraDBF=F KetDBF=T FulRan=T
         Omega=  0.000000  0.000000  1.000000  0.000000  0.000000 ICntrl=     500 IOpCl=  0
         NMat0=    1 NMatS0=    1 NMatT0=    0 NMatD0=    1 NMtDS0=    0 NMtDT0=    0
         I1Cent=           4 NGrid=           0.
 Petite list used in FoFCou.
 Requested convergence on RMS density matrix=1.00D-08 within 128 cycles.
 Requested convergence on MAX density matrix=1.00D-06.
 Requested convergence on             energy=1.00D-06.
 No special actions if energy rises.
 Keep R1 ints in memory in canonical form, NReq=3343693.
 Integral accuracy reduced to 1.0D-05 until final iterations.
 Initial convergence to 1.0D-05 achieved.  Increase integral accuracy.
 SCF Done:  E(RM06) =  -233.431686521     A.U. after   16 cycles
             Convg  =    0.2979D-08             -V/T =  2.0055
 Calling FoFJK, ICntrl=      2127 FMM=F ISym2X=0 I1Cent= 0 IOpClX= 0 NMat=1 NMatS=1 NMatT=0.
 ***** Axes restored to original set *****
 -------------------------------------------------------------------
 Center     Atomic                   Forces (Hartrees/Bohr)
 Number     Number              X              Y              Z
 -------------------------------------------------------------------
      1        6           0.000579750    0.001291280   -0.001286739
      2        8           0.001010033    0.000476969    0.000486404
      3        6          -0.001714406   -0.000104614    0.001526043
      4        6          -0.000173441   -0.000452179   -0.000842720
      5        6           0.000100147    0.000254788    0.000174070
      6        1           0.000891395   -0.000723667    0.000047149
      7        1          -0.000339290    0.000563205   -0.000097841
      8        1          -0.000048150   -0.000030405   -0.000139946
      9        1          -0.000890993    0.000289477   -0.000311682
     10        1           0.000023358   -0.000226928    0.000589261
     11        1           0.000048188   -0.000281623   -0.000278899
     12        1           0.000104199    0.000001413   -0.000088286
     13        1           0.000422400    0.000041197    0.000025954
     14        1          -0.000140681   -0.000028654    0.000060896
     15        1           0.000127491   -0.001070258    0.000136335
 -------------------------------------------------------------------
 Cartesian Forces:  Max     0.001714406 RMS     0.000599910

 GradGradGradGradGradGradGradGradGradGradGradGradGradGradGradGradGradGrad
 Berny optimization.
 Using GEDIIS/GDIIS optimizer.
 Internal  Forces:  Max     0.003459243 RMS     0.000781768
 Search for a local minimum.
 Step number   4 out of a maximum of   79
 All quantities printed in internal units (Hartrees-Bohrs-Radians)
 Mixed Optimization -- En-DIIS/RFO-DIIS
 Update second derivatives using D2CorX and points    1    2    3    4
 DE= -4.81D-04 DEPred=-6.17D-04 R= 7.80D-01
 SS=  1.41D+00  RLast= 1.70D-01 DXNew= 1.0810D+00 5.1083D-01
 Trust test= 7.80D-01 RLast= 1.70D-01 DXMaxT set to 6.43D-01
 Use linear search instead of GDIIS.
     Eigenvalues ---    0.00323   0.00546   0.00644   0.01432   0.03228
     Eigenvalues ---    0.04246   0.04643   0.04957   0.05458   0.05532
     Eigenvalues ---    0.05749   0.06172   0.08572   0.08710   0.11296
     Eigenvalues ---    0.12363   0.12422   0.13742   0.15996   0.16000
     Eigenvalues ---    0.16023   0.17015   0.21524   0.22041   0.23609
     Eigenvalues ---    0.28576   0.29363   0.31598   0.31857   0.33673
     Eigenvalues ---    0.33878   0.34040   0.34095   0.34286   0.34332
     Eigenvalues ---    0.34449   0.34756   0.44785   0.567521000.00000
     Eigenvalues --- 1000.000001000.000001000.000001000.000001000.00000
     Eigenvalues --- 1000.000001000.000001000.000001000.000001000.00000
     Eigenvalues --- 1000.000001000.000001000.000001000.000001000.00000
     Eigenvalues --- 1000.000001000.000001000.000001000.000001000.00000
     Eigenvalues --- 1000.000001000.000001000.000001000.000001000.00000
     Eigenvalues --- 1000.000001000.000001000.000001000.00000
 RFO step:  Lambda=-2.59867797D-04 EMin= 3.22760476D-03
 Quartic linear search produced a step of -0.20364.
 Iteration  1 RMS(Cart)=  0.03322268 RMS(Int)=  0.00030304
 Iteration  2 RMS(Cart)=  0.00040673 RMS(Int)=  0.00005574
 Iteration  3 RMS(Cart)=  0.00000008 RMS(Int)=  0.00005574
 Variable       Old X    -DE/DX   Delta X   Delta X   Delta X     New X
                                 (Linear)    (Quad)   (Total)
    R1        2.73022  -0.00180  -0.00180   0.00131  -0.00048   2.72974
    R2        2.86216   0.00146  -0.00032   0.00451   0.00419   2.86635
    R3        2.08531   0.00004  -0.00004   0.00028   0.00024   2.08554
    R4        2.08213  -0.00012  -0.00013   0.00013   0.00000   2.08213
    R5        1.83931  -0.00086  -0.00054   0.00049  -0.00005   1.83926
    R6        2.89739   0.00121  -0.00175   0.00746   0.00572   2.90311
    R7        2.08101  -0.00090  -0.00639   0.00209  -0.00430   2.07672
[...]
    A1        1.89627   0.00000   0.00000   0.00000   0.00000   1.89627
    A2        1.93150   0.00000   0.00000   0.00000   0.00000   1.93150
    A3        1.92780   0.00000   0.00000  -0.00005  -0.00005   1.92775
    A4        1.91071   0.00000   0.00000   0.00004   0.00004   1.91074
    A5        1.91627   0.00000   0.00000   0.00000   0.00000   1.91627
    A6        1.88131   0.00000   0.00000   0.00002   0.00002   1.88132
    A7        1.93974   0.00000   0.00000  -0.00004  -0.00004   1.93970
    A8        2.00006   0.00000   0.00000   0.00010   0.00010   2.00016
    A9        1.86984   0.00000   0.00000   0.00003   0.00003   1.86987
   A10        1.89305   0.00000   0.00000  -0.00010  -0.00010   1.89295
   A11        1.91392   0.00000   0.00000  -0.00005  -0.00005   1.91387
   A12        1.91619   0.00000   0.00000   0.00003   0.00003   1.91622
   A13        1.86566   0.00000   0.00000  -0.00002  -0.00002   1.86563
   A14        1.98514   0.00000   0.00000   0.00008   0.00008   1.98522
   A15        1.89870   0.00000   0.00000   0.00002   0.00002   1.89872
   A16        1.89847   0.00000   0.00000  -0.00004  -0.00004   1.89843
   A17        1.91761   0.00000   0.00000  -0.00001  -0.00001   1.91760
   A18        1.90786   0.00000   0.00000  -0.00002  -0.00002   1.90784
   A19        1.85119   0.00000   0.00000  -0.00002  -0.00002   1.85117
   A20        1.94235   0.00000   0.00000  -0.00002  -0.00002   1.94232
   A21        1.92642   0.00000   0.00000  -0.00002  -0.00002   1.92640
   A22        1.92800   0.00000   0.00000   0.00006   0.00006   1.92806
   A23        1.88189   0.00000   0.00000   0.00003   0.00003   1.88192
   A24        1.90766   0.00000   0.00000   0.00002   0.00002   1.90768
   A25        1.87572   0.00000   0.00000  -0.00007  -0.00007   1.87565
    D1       -3.13216   0.00000   0.00000  -0.00031  -0.00031  -3.13247
    D2       -1.03386   0.00000   0.00000  -0.00027  -0.00027  -1.03413
    D3        1.04814   0.00000   0.00000  -0.00028  -0.00028   1.04786
    D4        1.16344   0.00000   0.00000   0.00103   0.00103   1.16448
    D5       -2.99235   0.00000   0.00000   0.00105   0.00105  -2.99129
    D6       -0.98420   0.00000   0.00000   0.00099   0.00099  -0.98321
    D7       -0.94771   0.00000   0.00000   0.00101   0.00101  -0.94670
    D8        1.17968   0.00000   0.00000   0.00104   0.00104   1.18072
    D9       -3.09536   0.00000   0.00000   0.00097   0.00097  -3.09439
   D10       -3.00974   0.00000   0.00000   0.00097   0.00097  -3.00877
   D11       -0.88235   0.00000   0.00000   0.00099   0.00099  -0.88135
   D12        1.12580   0.00000   0.00000   0.00093   0.00093   1.12673
   D13       -1.38017   0.00000   0.00000   0.00127   0.00127  -1.37890
   D14        0.76325   0.00000   0.00000   0.00132   0.00132   0.76457
   D15        2.77232   0.00000   0.00000   0.00128   0.00128   2.77360
   D16        2.79984   0.00000   0.00000   0.00120   0.00120   2.80104
   D17       -1.33993   0.00000   0.00000   0.00125   0.00125  -1.33868
   D18        0.66914   0.00000   0.00000   0.00121   0.00121   0.67035
   D19        0.75497   0.00000   0.00000   0.00124   0.00124   0.75621
   D20        2.89839   0.00000   0.00000   0.00129   0.00129   2.89968
   D21       -1.37572   0.00000   0.00000   0.00125   0.00125  -1.37447
   D22        3.13880   0.00000   0.00000   0.00037   0.00037   3.13918
   D23       -1.05556   0.00000   0.00000   0.00039   0.00039  -1.05517
   D24        1.01640   0.00000   0.00000   0.00032   0.00032   1.01673
   D25        1.00580   0.00000   0.00000   0.00031   0.00031   1.00610
   D26        3.09461   0.00000   0.00000   0.00032   0.00032   3.09494
   D27       -1.11660   0.00000   0.00000   0.00026   0.00026  -1.11635
   D28       -1.01889   0.00000   0.00000   0.00036   0.00036  -1.01853
   D29        1.06993   0.00000   0.00000   0.00037   0.00037   1.07030
   D30       -3.14129   0.00000   0.00000   0.00030   0.00030  -3.14098
         Item               Value     Threshold  Converged?
 Maximum Force            0.000011     0.000450     YES
 RMS     Force            0.000002     0.000300     YES
 Maximum Displacement     0.003645     0.001800     NO 
 RMS     Displacement     0.001092     0.001200     YES
 Predicted change in Energy=-2.171202D-09
 GradGradGradGradGradGradGradGradGradGradGradGradGradGradGradGradGradGrad

 1\1\GINC-CN0033\Freq\RM06\6-31G\C4H10O1\MEANAPAN\01-Jan-2016\0\\#N Geo
 m=AllCheck Guess=TCheck SCRF=Check GenChk RM06/6-31G Freq\\titulo\\0,1
 \C,0.2305872213,1.2884651166,-0.1514280307\O,-1.1358411313,1.655251640
 2,0.1348207361\C,0.4765293778,-0.1119958916,0.3732302614\C,-0.30809839
 87,-1.2122639,-0.3519571417\C,-1.7669358276,-1.3196668088,0.0886921549
 \H,-1.3358896011,2.5480156511,-0.1952867464\H,0.4209168127,1.312941349
 2,-1.2380025844\H,0.927315962,1.9943454413,0.3283628979\H,1.5556567635
 ,-0.3067274407,0.2838888815\H,0.2363581635,-0.1290762189,1.4467700774\
 H,-0.257219839,-1.0279159558,-1.437382781\H,0.1949035975,-2.1759010877
 ,-0.1829183374\H,-2.289934797,-2.1151788109,-0.456040967\H,-1.82655878
 95,-1.5510236274,1.160830983\H,-2.2859895142,-0.3698694566,-0.07177940
 36\\Version=EM64L-G09RevA.02\State=1-A\HF=-233.4318163\RMSD=1.832e-09\
 RMSF=1.324e-05\ZeroPoint=0.1381341\Thermal=0.1439492\Dipole=0.4787795,
 0.5307946,-0.3440035\DipoleDeriv=0.7157073,-0.1269677,-0.0350775,-0.17
 75985,0.3787903,0.0737711,-0.0348422,0.0653635,0.4078804,-0.8436588,0.
 17927,-0.0112277,0.1949486,-0.4585388,-0.1631318,0.003694,-0.2018048,-
 0.5320432,0.0661849,-0.0205478,-0.0113473,0.0246523,0.0080103,0.014917
 4,-0.0224221,0.0265209,0.0684387,0.0979559,-0.0224238,-0.0017642,-0.02
 45275,0.1199777,-0.0181433,-0.0057503,-0.004351,0.1254846,-0.050391,0.
 0228101,0.0203374,0.0166134,-0.0024106,0.0050232,0.0047124,-0.0045006,
 0.0743792,0.2958601,-0.0316804,0.036048,0.0133054,0.1170217,0.11737,0.
 0224972,0.1509962,0.34327,-0.0458836,0.041527,0.0277359,0.032408,0.025
 6531,-0.0142768,0.0671164,0.0356305,-0.2146725,-0.1341598,-0.0793801,-
 0.0476899,-0.0921768,-0.1266441,-0.0690454,-0.0660493,-0.0943781,-0.00
 11381,-0.1856569,0.0066929,-0.0053773,0.0049573,0.0024858,-0.0034247,0
 .0347344,-0.0153135,0.0749441,0.0755692,-0.0207172,0.0647852,-0.012199
 4,0.0190699,0.0065526,0.0107713,0.0045039,-0.141922,0.0049173,-0.02791
 68,0.0256878,-0.0276225,0.048124,0.0656574,0.0318305,0.0084993,-0.1908
 799,-0.0467628,0.0813427,-0.0048776,0.0788066,-0.1657593,0.0075059,-0.
 0284675,0.03415,0.0609934,-0.0288055,-0.1009533,-0.0392711,-0.1340959,
 -0.0710676,-0.0887503,-0.0625047,-0.1045396,0.0156499,0.0410019,0.0034
 458,-0.0181391,-0.010033,0.0764835,0.0435166,0.0528404,0.0607373,-0.16
 69826,0.0381218,0.0954986,0.0001775,0.1125619,0.0288043,0.0224579,-0.0
 081604,0.038486,0.076598\Polar=47.4059803,1.197079,49.9408834,-0.15116
 12,-0.6001887,42.0142358\PG=C01 [X(C4H10O1)]\NImag=1\\0.49144822,0.042
 57904,0.53434197,0.01671633,0.01322845,0.58084551,-0.20648596,0.009429
 40,0.04284579,0.33761804,0.05645851,-0.08982304,-0.00493560,-0.1500340
 9,0.52264088,0.02277947,0.01014212,-0.07132049,-0.02833085,-0.15876045
 ,0.12175565,-0.07808918,0.00272695,-0.00283699,-0.01745715,0.04255881,
 -0.01286174,0.57463713,0.01152746,-0.18671111,0.04391832,0.00951026,-0
 .01090607,0.00351381,-0.01781538,0.48003840,-0.00885619,0.04602338,-0.
 10194707,0.00225307,-0.00708808,0.00493974,-0.03553493,-0.00530368,0.5
 6756171,0.00573332,0.00321772,0.00378281,0.00033811,-0.00206520,-0.000
 07978,-0.10682269,-0.03498341,-0.02762201,0.48344448,-0.01942793,-0.03
 135907,-0.01677621,-0.00115924,0.00397466,0.00005057,-0.03652227,-0.13
 459025,-0.03577853,-0.04350648,0.54332811,0.00761608,0.00651835,0.0061
 4855,-0.00075880,-0.00042295,-0.00039838,-0.02628219,-0.03880905,-0.10
 826711,-0.00118295,-0.03389332,0.56252432,0.00136202,-0.00004668,0.000
 21761,-0.00081725,-0.00315337,-0.00007905,-0.02112395,-0.00454217,0.00
 257688,-0.18562526,-0.00281324,0.03365844,0.48895663,-0.00066542,0.000
 43213,0.00020131,0.00036100,-0.00304830,0.00072378,-0.02709121,-0.0008
 0609,0.00647643,-0.00336815,-0.08193870,0.00096463,-0.00784343,0.59136
 847,0.00032316,0.00058348,-0.00075356,0.00017720,-0.00103630,0.0011883
 8,-0.01752632,-0.00125226,0.00434030,0.03731440,0.00215702,-0.09216487
 ,0.02930231,0.00690987,0.56456215,-0.01307852,0.04203475,-0.01447431,-
 0.05304760,0.06172481,-0.01019973,-0.00806270,-0.00031758,0.00243901,-
 0.00018308,0.00012126,0.00040951,-0.00040587,-0.00063323,-0.00029460,0
 .07162717,-0.00910784,-0.01069503,0.00758753,0.11248640,-0.41983454,0.
 14819137,0.00379097,0.00123734,-0.00115323,-0.00035939,0.00060259,0.00
 021840,-0.00066532,0.00002707,-0.00045418,-0.10362148,0.42797452,0.008
 80612,-0.00955906,0.00024797,-0.03311481,0.16568260,-0.06483697,0.0005
 1088,0.00002519,-0.00027009,0.00002980,0.00005957,0.00014964,0.0001484
 7,-0.00042124,0.00003671,0.02334320,-0.15439930,0.06388537,-0.05363618
 ,-0.00296947,0.02776283,-0.02394833,0.00505511,0.03763097,0.00340149,0
 .00032797,-0.00639072,-0.00033558,-0.00013110,0.00101399,-0.00014369,-
 0.00008629,-0.00019938,0.00135799,-0.00139841,0.00061309,0.06755856,-0
 .00428547,-0.05160867,0.00397065,0.00851685,0.00187716,-0.00893791,-0.
 00475793,-0.00439954,0.03304699,0.00031192,0.00246548,0.00192098,-0.00
 020457,-0.00009094,-0.00013718,-0.00017048,0.00049271,-0.00107070,-0.0
 0163493,0.05396537,0.03112237,0.00369193,-0.29006915,0.00809589,-0.001
 26520,-0.00061909,0.00114562,0.00017803,-0.01338393,-0.00024832,-0.001
 56609,0.00097345,0.00005407,0.00002645,0.00024808,0.00011452,-0.000263
 65,0.00012434,-0.04104682,-0.00611652,0.31617952,-0.13612914,-0.096544
 84,-0.06753193,-0.04028325,-0.01352593,-0.00829526,0.00464944,0.004725
 68,0.00194389,0.00085960,0.00123504,-0.00074399,-0.00040279,0.00035198
 ,0.00003361,0.00084689,-0.00151437,-0.00021439,0.00510998,0.00075287,0
 .00172144,0.16457607,-0.09924852,-0.15560990,-0.07310375,0.01163147,0.
 00941789,0.00399586,-0.01907238,-0.02214522,-0.01651733,0.00287060,-0.
 00423799,0.00395813,0.00019877,0.00003549,-0.00014283,-0.00010130,0.00
 134419,0.00027955,-0.00039504,0.00149288,0.00206109,0.10501316,0.16868
 113,-0.06851174,-0.07444308,-0.10814523,0.00864967,0.00574844,0.008143
 66,0.00748337,0.01101681,0.00557625,-0.00087295,0.00162009,-0.00087991
 ,0.00005122,-0.00008991,0.00007096,-0.00082611,0.00025905,-0.00020936,
 -0.01972084,-0.02252307,-0.01470032,0.07307608,0.07985403,0.10804804,-
 0.00786291,-0.00142919,0.00240465,0.00128820,0.00158612,-0.00086852,-0
 .29279052,0.04831481,0.02263059,-0.01608489,0.00289352,0.00312958,0.00
 005975,-0.00280212,-0.00286565,-0.00002741,-0.00006478,0.00004843,0.00
 001830,0.00014534,-0.00038588,0.00051614,0.00045425,0.00008021,0.32163
 784,0.03202258,-0.00529227,-0.00491162,0.00121467,-0.00737829,0.003416
 27,0.04621893,-0.05498442,-0.00219196,-0.02621189,0.00129120,0.0019054
 9,-0.00161772,-0.00306294,-0.00327482,0.00203463,-0.00061781,-0.000063
 68,-0.00067428,0.00101627,0.00043511,-0.00045455,0.00070791,-0.0011698
 5,-0.05047272,0.06765191,-0.01296979,0.00298316,0.00050930,-0.00003473
 ,0.00257673,-0.00057692,0.02201377,-0.00308216,-0.05138039,-0.01741508
 ,0.00145876,0.00140485,-0.00041395,-0.00161601,-0.00134608,-0.00070468
 ,0.00025525,0.00076776,0.00033190,-0.00089668,-0.00018347,0.00020289,-
 0.00051546,0.00039472,-0.02310625,0.00495969,0.05096918,0.00100024,0.0
 0230434,-0.00617759,0.00087834,-0.00081124,-0.00050912,-0.06110587,-0.
 00139859,0.05796446,0.00239824,-0.00157011,-0.01843031,0.00112133,0.00
 055529,-0.00142653,0.00000193,-0.00018468,0.00013115,0.00040919,0.0011
 2623,-0.00094883,-0.00032892,-0.00028579,0.00036344,-0.00725733,-0.001
 34848,0.03185942,0.06436594,-0.00765016,-0.00481347,0.03628684,-0.0013
 6507,0.00251375,-0.00243428,0.00014370,-0.04699605,0.00199093,0.002602
 08,-0.00029689,-0.02465538,0.00138659,0.00140639,-0.00018823,-0.000484
 97,0.00049374,-0.00016873,0.00180632,-0.00575013,0.00205819,-0.0002409
 2,0.00141506,-0.00070828,0.00151185,-0.00011626,-0.00699021,0.00416048
 ,0.05538015,0.00429537,0.00036097,-0.01464103,-0.00003367,-0.00086746,
 0.00147694,0.05668955,0.00504888,-0.29218654,0.00315504,0.00016732,-0.
 01686434,0.00118039,0.00099690,0.00132929,-0.00001830,-0.00043456,0.00
 025702,-0.00016043,0.00225061,0.00046364,-0.00015327,0.00032703,0.0006
 4839,-0.00128643,0.00021672,-0.00202572,-0.06171290,-0.00481454,0.3212
 0820,0.00126038,0.00107605,-0.00014015,-0.00007470,-0.00024298,-0.0001
 7757,0.00047746,0.00063531,-0.01795820,-0.04662547,-0.00030459,0.00908
 938,-0.00434290,-0.00704644,0.03438200,0.00004699,0.00001771,0.0000312
 6,0.00001897,0.00000495,0.00067950,-0.00014662,0.00026702,0.00001659,-
 0.00013832,0.00051307,0.00026978,-0.00148375,-0.00227264,-0.00104940,0
 .05448717,0.00069315,0.00177056,-0.00232442,-0.00009299,0.00018824,0.0
 0076111,-0.00086392,0.00019638,-0.02654459,0.00003070,-0.05592295,0.04
 491320,-0.00018824,0.00025133,0.00187771,0.00008361,-0.00011732,-0.000
 07554,-0.00007076,0.00016257,0.00094799,-0.00006017,0.00050425,0.00019
 530,0.00010821,0.00025211,0.00051407,-0.00268711,-0.00315408,-0.002579
 45,0.00455617,0.06070063,0.00057573,0.00178628,0.00069046,0.00006976,-
 0.00025018,0.00045682,0.00067316,0.00192819,-0.01831622,0.00920796,0.0
 4458607,-0.29138282,0.00002970,0.00188274,-0.00887031,-0.00002416,-0.0
 0024180,-0.00013366,0.00009111,-0.00119286,0.00071646,-0.00009338,0.00
 028523,0.00053923,-0.00049649,-0.00007959,-0.00010469,-0.00227404,-0.0
 0187033,-0.00027259,-0.01059007,-0.04684293,0.32087380,-0.00182264,-0.
 00257373,-0.00237193,0.00061079,0.00009787,0.00015248,0.00534980,-0.01
 865527,0.00238223,-0.09786222,0.10349576,-0.01986415,-0.01940836,0.029
 80516,-0.00476521,0.00000484,0.00006186,-0.00008915,-0.00004966,0.0002
 3674,-0.00006064,0.00007377,-0.00095516,0.00019477,0.00098683,-0.00018
 836,0.00056535,0.00008171,0.00058309,0.00006718,0.00007242,-0.00076501
 ,0.00087245,0.11522366,-0.00313066,-0.00166102,-0.00362437,0.00020148,
 0.00028922,-0.00009399,0.00955770,-0.02196355,0.00561629,0.10185958,-0
 .24385125,0.03727860,-0.00252121,0.00299869,0.00013990,-0.00012944,0.0
 0006907,0.00002966,-0.00000462,0.00042017,-0.00013081,0.00023993,-0.00
 151382,0.00030256,-0.00032288,0.00074569,0.00068575,0.00028914,0.00012
 509,-0.00037015,0.00299363,-0.00549744,-0.00011499,-0.10889355,0.26797
 637,-0.00169679,-0.00134064,-0.00189693,0.00011824,0.00033898,0.000133
 78,0.00599542,-0.01702410,0.00267715,-0.01927028,0.03718597,-0.0578918
 3,0.00720080,-0.00973727,0.00206954,-0.00002304,-0.00005969,-0.0000709
 7,-0.00013386,-0.00012111,0.00032605,-0.00001912,-0.00061324,0.0005747
 8,0.00048028,0.00066787,0.00101999,0.00046057,0.00045170,-0.00001125,-
 0.01534726,0.02982183,-0.00582776,0.02106725,-0.03941920,0.05826517,-0
 .00072573,0.00053830,-0.00018032,0.00079106,0.00032269,0.00002839,-0.0
 0575176,0.00124292,0.00313066,-0.01505457,-0.02460683,-0.01749646,-0.1
 0583608,-0.08895487,-0.06206129,0.00007424,0.00012569,-0.00009422,0.00
 005066,-0.00006096,0.00005751,0.00017838,-0.00024600,0.00000876,-0.001
 08373,-0.00141830,-0.00060123,0.00022129,0.00038820,0.00020456,0.00145
 226,-0.00006812,0.00024785,0.00107452,0.00058612,-0.00075962,0.1166447
 0,0.00095802,0.00012272,-0.00019348,-0.00042526,-0.00139665,0.00002979
 ,-0.00006190,0.00160036,0.00049283,0.00167655,-0.00099912,-0.00115210,
 -0.08951960,-0.18953380,-0.09689421,-0.00036708,-0.00029050,0.00004865
 ,-0.00010155,0.00000749,0.00011746,-0.00020505,-0.00002933,0.00001516,
 -0.00012536,-0.00020267,-0.00010510,0.00014878,-0.00002835,0.00010150,
 -0.00028634,-0.00018684,0.00042229,-0.00034995,0.00050244,0.00025007,0
 .10022302,0.20264077,-0.00006530,-0.00001489,0.00000117,0.00005025,0.0
 0018373,0.00010953,0.00188576,-0.00026075,-0.00043080,0.00728303,0.008
 75973,0.00500199,-0.06269631,-0.09659039,-0.11584673,-0.00003144,0.000
 01985,0.00004105,0.00000590,-0.00002492,0.00002183,-0.00001627,0.00002
 105,-0.00001523,0.00023514,0.00024143,0.00048735,0.00019719,0.00013864
 ,0.00040912,-0.00072737,0.00018106,0.00044806,-0.00079462,-0.00003390,
 0.00006624,0.06726039,0.10736193,0.12236445,-0.00011361,-0.00016416,0.
 00005100,0.00015108,0.00010494,0.00016450,0.00174800,0.00091857,0.0013
 9244,-0.00518689,-0.00823956,0.03471496,-0.04692134,-0.00263458,0.0086
 3608,0.00000204,0.00000669,-0.00005656,-0.00000565,0.00014101,-0.00018
 506,0.00003749,-0.00004254,-0.00003944,0.00031895,0.00039333,-0.000088
 54,-0.00016746,-0.00040882,-0.00098711,-0.00619260,-0.00052269,0.00163
 710,0.00145205,0.00033701,-0.00048647,0.00033141,0.00401108,-0.0153958
 6,0.05419407,0.00011713,-0.00004965,0.00016309,-0.00037303,-0.00022751
 ,-0.00087364,0.00004905,0.00003469,0.00125261,0.00041240,-0.00019480,0
 .00141204,-0.00256560,-0.06059353,0.05477914,0.00013680,0.00013876,0.0
 0005371,0.00005163,0.00005387,-0.00012830,-0.00003040,-0.00004017,-0.0
 0003587,0.00008555,-0.00004494,-0.00020501,-0.00048523,-0.00027664,-0.
 00032453,-0.00027457,0.00080378,-0.00006766,-0.00017810,0.00012359,-0.
 00056218,0.00092555,0.00503902,-0.02505989,0.00354269,0.06012805,-0.00
 010199,-0.00023289,-0.00007151,0.00010120,0.00043951,0.00036851,-0.000
 77153,-0.00029511,0.00092513,-0.00070180,0.00181210,-0.01032817,0.0096
 3658,0.05431547,-0.29798449,0.00001764,-0.00004137,-0.00006318,-0.0000
 2566,-0.00018783,0.00006640,0.00000503,0.00009702,0.00006126,0.0000049
 2,0.00000304,0.00025239,0.00054522,0.00077470,0.00039733,0.00189845,-0
 .00029285,0.00100532,0.00026809,-0.00046287,0.00033126,0.00140446,0.00
 547887,-0.01515515,-0.01348500,-0.06015239,0.32548306,-0.00286030,-0.0
 0017849,-0.00006780,0.00043863,0.00192395,0.00064582,0.00094050,0.0005
 0942,-0.00035119,-0.01899309,0.03053577,-0.00487309,-0.10647223,0.1100
 5231,-0.02102977,0.00084310,0.00042694,-0.00009327,0.00019395,-0.00012
 157,-0.00011539,0.00044296,-0.00008856,0.00004699,0.00041913,-0.000010
 93,0.00009114,-0.00013487,-0.00015972,-0.00019059,0.00118872,-0.000152
 84,0.00007334,-0.00578750,-0.00106222,0.00241388,0.00763337,-0.0155753
 5,0.00280951,0.00035247,-0.00141387,0.00120440,0.12179515,-0.00083988,
 0.00095586,0.00051328,0.00009815,-0.00828739,0.00027560,0.00113889,0.0
 0039513,-0.00032207,-0.00248703,0.00172898,-0.00015701,0.11409576,-0.2
 5744528,0.03693289,-0.00031032,-0.00082478,-0.00042066,0.00022540,-0.0
 0010468,-0.00004568,0.00025758,-0.00002238,-0.00004140,0.00011740,0.00
 003451,-0.00002278,0.00018698,0.00009768,-0.00007924,0.00036364,0.0000
 4879,-0.00023047,-0.00172136,0.00123675,0.00016101,0.01100258,-0.01724
 555,0.00507731,0.00255703,-0.00489451,-0.00125541,-0.12468483,0.284326
 87,-0.00003284,0.00027244,0.00040201,-0.00008821,-0.00034375,-0.000821
 16,-0.00058381,0.00039790,0.00016187,0.00662014,-0.00984305,0.00197464
 ,-0.02086716,0.03595725,-0.05687935,0.00027249,0.00051631,0.00007437,0
 .00022791,0.00001955,-0.00016381,0.00008468,0.00001363,-0.00010724,-0.
 00000458,-0.00015410,-0.00018828,-0.00004213,0.00012899,-0.00018846,-0
 .00037693,-0.00055251,0.00017791,0.00237591,0.00019751,0.00023478,0.00
 885056,-0.01597367,0.00249713,-0.01587203,0.02974888,-0.00528815,0.019
 43602,-0.04038537,0.05811375\\-0.00002933,0.00000660,-0.00000650,-0.00
 000657,-0.00000597,-0.00001480,0.00000263,0.00001840,0.00001174,-0.000
 00047,-0.00000417,0.00000550,0.00002086,-0.00001098,-0.00000027,-0.000
 02764,-0.00001201,-0.00001876,-0.00000736,0.00000356,-0.00000645,-0.00
 002152,0.00001588,-0.00000669,0.00000128,0.00001964,0.00000494,-0.0000
 0598,0.00001468,0.00000237,0.00001694,-0.00000525,0.00000537,0.0000237
 5,0.00000694,0.00001589,0.00002267,-0.00002120,0.00000595,0.00000866,-
 0.00000651,0.00000572,0.00000208,-0.00001960,-0.00000402\\\@


     "IF I COULD JUST GET IT ON PAPER"
 LIFE AND INK, THEY RUN OUT AT THE SAME TIME,
 OR SO SAID MY OLD FRIEND THE SQUID.
     -- JIMMY BUFFETT, 1981
 Job cpu time:  0 days  0 hours  2 minutes  2.8 seconds.
 File lengths (MBytes):  RWF=     14 Int=      0 D2E=      0 Chk=      2 Scr=      1
 Normal termination of Gaussian 09 at Fri Jan  1 23:52:29 2016.
