 *******************************************************************************
 ** Site#: 20084        For non-commercial use only     Version 15.347L 64BITS**
 *******************************************************************************
 ** Cite this work as:                                                        **
 **                                                                           **
 ** (a) MOPAC2012, James J. P. Stewart, Stewart Computational Chemistry,      **
 **  Version 15.347L web: HTTP://OpenMOPAC.net         Days remaining: 328    **
 **                                                                           **
 **                                 AND                                       **
 **                                                                           **
 ** (b) Maia, J.D.C., et al., J. Chem. Theory Comput. 2012, 8, 3072-3081.     **
 **                DOI: 10.1021/ct3004645.                                    **
 *******************************************************************************
 **                                                                           **
 **                                MOPAC2012                                  **
 **                                                                           **
 *******************************************************************************

                              PM7 CALCULATION RESULTS


 *******************************************************************************
 *  CALCULATION DONE:                                Tue Jan 19 13:28:43 2016  *
 *  MERS=N     - NUMBER OF FUNDAMENTAL UNIT CELLS USED:  4
 *  T=         - A TIME OF 172800.0 SECONDS REQUESTED
 *  DUMP=N     - RESTART FILE WRITTEN EVERY  7200.000 SECONDS
 *  GNORM=     - EXIT WHEN GRADIENT NORM DROPS BELOW  10.00    
 *  PL         - MONITOR CONVERGENCE IN DENSITY MATRIX
 *******************************************************************************
 MERS=(2,2)     PL GNORM=10
      Talc (MgO)3(SiO2)4(H2O) two dimensional layer.

   ATOM   CHEMICAL          X               Y               Z
  NUMBER   SYMBOL      (ANGSTROMS)     (ANGSTROMS)     (ANGSTROMS)
 
     1      Mg          0.00000000  *   0.00000000  *   0.00000000  *
     2      Mg         -2.65094350  *  -4.58799450  *   0.00000000  *
     3      Mg         -2.64631450  *  -1.52800450  *   0.00000000  *
     4      Mg          0.00462900  *   3.05599900  *   0.00000000  *
     5      Mg          2.64631500  *   1.52799800  *  -0.00800000  *
     6      Mg         -0.00059850  *  -3.05601350  *   0.00000000  *
     7       O         -0.88298050  *  -1.52954350  *  -1.09867400  *
     8       O          1.76462800  *   3.05733400  *  -1.10000000  *
     9       O          0.88631100  *   1.52666000  *   1.10000000  *
    10       O         -1.76131650  *  -3.05448150  *   1.09731700  *
    11       O         -0.88360950  *  -4.58953550  *  -1.09066300  *
    12       O          1.76400400  *   0.00133100  *  -1.10000000  *
    13       O          0.87110450  *  -4.58932850  *   1.10157900  *
    14       O         -0.39097100  *   0.68059200  *   3.25600000  *
    15       O          0.40081350  *  -0.68911250  *  -3.25301100  *
    16       O         -2.25997350  *  -5.26858650  *  -3.25600100  *
    17       O         -3.04771650  *  -3.90740750  *   3.26002600  *
    18       O         -0.40349050  *  -3.74341350  *   3.27674500  *
    19       O         -2.25327950  *  -0.83603450  *  -3.27020000  *
    20       O          0.38378150  *  -5.43258650  *  -3.26800100  *
    21       O          2.25328000  *   0.84459200  *   3.26800000  *
    22       O         -0.78276250  *  -3.06333650  *  -3.25437200  *
    23       O          1.85831600  *   1.52919000  *  -3.26000000  *
    24       O          0.78681900  *   3.05480400  *   3.25740800  *
    25       O         -1.84849050  *  -1.52471650  *   3.24960500  *
    26       O         -3.53342450  *  -3.06142250  *  -1.05599500  *
    27       O         -0.87769200  *   1.52532900  *  -1.05600000  *
    28       O         -1.75460000  *   3.06141100  *   1.05198500  *
    29       O          0.87769350  *  -1.52807950  *   1.04800300  *
    30      Si         -1.76000350  *  -0.00133750  *   2.72000100  *
    31      Si         -0.88693950  *  -4.58666350  *  -2.72400000  *
    32      Si          1.76400400  *   0.00133100  *  -2.72400000  *
    33      Si          0.86821350  *  -4.58932750  *   2.72157700  *
    34      Si         -0.88630950  *  -1.51952650  *  -2.72798700  *
    35      Si          1.76462900  *   3.05733400  *  -2.72400000  *
    36      Si          0.88631100  *   1.52666000  *   2.72000000  *
    37      Si         -1.75641750  *  -3.05025450  *   2.71730400  *
    38       O         -1.76400350  *  -0.00133150  *   1.10000000  *
    39       H         -3.54365853  *  -3.05786791  *  -1.99798263  *
    40       H         -0.87595632  *   1.53229314  *  -1.99834320  *
    41       H         -1.75480309  *   3.05572394  *   1.99435972  *
    42       H          0.88406327  *  -1.53028576  *   1.99074262  *
    43      Mg          5.28800600  *   0.00000000  *   0.00000000  *
    44      Mg          2.63706250  *  -4.58799450  *   0.00000000  *
    45      Mg          2.64169150  *  -1.52800450  *   0.00000000  *
    46      Mg          5.29263500  *   3.05599900  *   0.00000000  *
    47      Mg          7.93432100  *   1.52799800  *  -0.00800000  *
    48      Mg          5.28740750  *  -3.05601350  *   0.00000000  *
    49       O          4.40502550  *  -1.52954350  *  -1.09867400  *
    50       O          7.05263400  *   3.05733400  *  -1.10000000  *
    51       O          6.17431700  *   1.52666000  *   1.10000000  *
    52       O          3.52668950  *  -3.05448150  *   1.09731700  *
    53       O          4.40439650  *  -4.58953550  *  -1.09066300  *
    54       O          7.05201000  *   0.00133100  *  -1.10000000  *
    55       O          6.15911050  *  -4.58932850  *   1.10157900  *
    56       O          4.89703500  *   0.68059200  *   3.25600000  *
    57       O          5.68881950  *  -0.68911250  *  -3.25301100  *
    58       O          3.02803250  *  -5.26858650  *  -3.25600100  *
    59       O          2.24028950  *  -3.90740750  *   3.26002600  *
    60       O          4.88451550  *  -3.74341350  *   3.27674500  *
    61       O          3.03472650  *  -0.83603450  *  -3.27020000  *
    62       O          5.67178750  *  -5.43258650  *  -3.26800100  *
    63       O          7.54128600  *   0.84459200  *   3.26800000  *
    64       O          4.50524350  *  -3.06333650  *  -3.25437200  *
    65       O          7.14632200  *   1.52919000  *  -3.26000000  *
    66       O          6.07482500  *   3.05480400  *   3.25740800  *
    67       O          3.43951550  *  -1.52471650  *   3.24960500  *
    68       O          1.75458150  *  -3.06142250  *  -1.05599500  *
    69       O          4.41031400  *   1.52532900  *  -1.05600000  *
    70       O          3.53340600  *   3.06141100  *   1.05198500  *
    71       O          6.16569950  *  -1.52807950  *   1.04800300  *
    72      Si          3.52800250  *  -0.00133750  *   2.72000100  *
    73      Si          4.40106650  *  -4.58666350  *  -2.72400000  *
    74      Si          7.05201000  *   0.00133100  *  -2.72400000  *
    75      Si          6.15621950  *  -4.58932750  *   2.72157700  *
    76      Si          4.40169650  *  -1.51952650  *  -2.72798700  *
    77      Si          7.05263500  *   3.05733400  *  -2.72400000  *
    78      Si          6.17431700  *   1.52666000  *   2.72000000  *
    79      Si          3.53158850  *  -3.05025450  *   2.71730400  *
    80       O          3.52400250  *  -0.00133150  *   1.10000000  *
    81       H          1.74434747  *  -3.05786791  *  -1.99798263  *
    82       H          4.41204968  *   1.53229314  *  -1.99834320  *
    83       H          3.53320291  *   3.05572394  *   1.99435972  *
    84       H          6.17206927  *  -1.53028576  *   1.99074262  *
    85      Mg          0.01387650  *   9.17198950  *   0.00000000  *
    86      Mg         -2.63706700  *   4.58399500  *   0.00000000  *
    87      Mg         -2.63243800  *   7.64398500  *   0.00000000  *
    88      Mg          0.01850550  *  12.22798850  *   0.00000000  *
    89      Mg          2.66019150  *  10.69998750  *  -0.00800000  *
    90      Mg          0.01327800  *   6.11597600  *   0.00000000  *
    91       O         -0.86910400  *   7.64244600  *  -1.09867400  *
    92       O          1.77850450  *  12.22932350  *  -1.10000000  *
    93       O          0.90018750  *  10.69864950  *   1.10000000  *
    94       O         -1.74744000  *   6.11750800  *   1.09731700  *
    95       O         -0.86973300  *   4.58245400  *  -1.09066300  *
    96       O          1.77788050  *   9.17332050  *  -1.10000000  *
    97       O          0.88498100  *   4.58266100  *   1.10157900  *
    98       O         -0.37709450  *   9.85258150  *   3.25600000  *
    99       O          0.41469000  *   8.48287700  *  -3.25301100  *
   100       O         -2.24609700  *   3.90340300  *  -3.25600100  *
   101       O         -3.03384000  *   5.26458200  *   3.26002600  *
   102       O         -0.38961400  *   5.42857600  *   3.27674500  *
   103       O         -2.23940300  *   8.33595500  *  -3.27020000  *
   104       O          0.39765800  *   3.73940300  *  -3.26800100  *
   105       O          2.26715650  *  10.01658150  *   3.26800000  *
   106       O         -0.76888600  *   6.10865300  *  -3.25437200  *
   107       O          1.87219250  *  10.70117950  *  -3.26000000  *
   108       O          0.80069550  *  12.22679350  *   3.25740800  *
   109       O         -1.83461400  *   7.64727300  *   3.24960500  *
   110       O         -3.51954800  *   6.11056700  *  -1.05599500  *
   111       O         -0.86381550  *  10.69731850  *  -1.05600000  *
   112       O         -1.74072350  *  12.23340050  *   1.05198500  *
   113       O          0.89157000  *   7.64391000  *   1.04800300  *
   114      Si         -1.74612700  *   9.17065200  *   2.72000100  *
   115      Si         -0.87306300  *   4.58532600  *  -2.72400000  *
   116      Si          1.77788050  *   9.17332050  *  -2.72400000  *
   117      Si          0.88209000  *   4.58266200  *   2.72157700  *
   118      Si         -0.87243300  *   7.65246300  *  -2.72798700  *
   119      Si          1.77850550  *  12.22932350  *  -2.72400000  *
   120      Si          0.90018750  *  10.69864950  *   2.72000000  *
   121      Si         -1.74254100  *   6.12173500  *   2.71730400  *
   122       O         -1.75012700  *   9.17065800  *   1.10000000  *
   123       H         -3.52978203  *   6.11412159  *  -1.99798263  *
   124       H         -0.86207982  *  10.70428264  *  -1.99834320  *
   125       H         -1.74092659  *  12.22771344  *   1.99435972  *
   126       H          0.89793977  *   7.64170374  *   1.99074262  *
   127      Mg          5.30188250  *   9.17198950  *   0.00000000  *
   128      Mg          2.65093900  *   4.58399500  *   0.00000000  *
   129      Mg          2.65556800  *   7.64398500  *   0.00000000  *
   130      Mg          5.30651150  *  12.22798850  *   0.00000000  *
   131      Mg          7.94819750  *  10.69998750  *  -0.00800000  *
   132      Mg          5.30128400  *   6.11597600  *   0.00000000  *
   133       O          4.41890200  *   7.64244600  *  -1.09867400  *
   134       O          7.06651050  *  12.22932350  *  -1.10000000  *
   135       O          6.18819350  *  10.69864950  *   1.10000000  *
   136       O          3.54056600  *   6.11750800  *   1.09731700  *
   137       O          4.41827300  *   4.58245400  *  -1.09066300  *
   138       O          7.06588650  *   9.17332050  *  -1.10000000  *
   139       O          6.17298700  *   4.58266100  *   1.10157900  *
   140       O          4.91091150  *   9.85258150  *   3.25600000  *
   141       O          5.70269600  *   8.48287700  *  -3.25301100  *
   142       O          3.04190900  *   3.90340300  *  -3.25600100  *
   143       O          2.25416600  *   5.26458200  *   3.26002600  *
   144       O          4.89839200  *   5.42857600  *   3.27674500  *
   145       O          3.04860300  *   8.33595500  *  -3.27020000  *
   146       O          5.68566400  *   3.73940300  *  -3.26800100  *
   147       O          7.55516250  *  10.01658150  *   3.26800000  *
   148       O          4.51912000  *   6.10865300  *  -3.25437200  *
   149       O          7.16019850  *  10.70117950  *  -3.26000000  *
   150       O          6.08870150  *  12.22679350  *   3.25740800  *
   151       O          3.45339200  *   7.64727300  *   3.24960500  *
   152       O          1.76845800  *   6.11056700  *  -1.05599500  *
   153       O          4.42419050  *  10.69731850  *  -1.05600000  *
   154       O          3.54728250  *  12.23340050  *   1.05198500  *
   155       O          6.17957600  *   7.64391000  *   1.04800300  *
   156      Si          3.54187900  *   9.17065200  *   2.72000100  *
   157      Si          4.41494300  *   4.58532600  *  -2.72400000  *
   158      Si          7.06588650  *   9.17332050  *  -2.72400000  *
   159      Si          6.17009600  *   4.58266200  *   2.72157700  *
   160      Si          4.41557300  *   7.65246300  *  -2.72798700  *
   161      Si          7.06651150  *  12.22932350  *  -2.72400000  *
   162      Si          6.18819350  *  10.69864950  *   2.72000000  *
   163      Si          3.54546500  *   6.12173500  *   2.71730400  *
   164       O          3.53787900  *   9.17065800  *   1.10000000  *
   165       H          1.75822397  *   6.11412159  *  -1.99798263  *
   166       H          4.42592618  *  10.70428264  *  -1.99834320  *
   167       H          3.54707941  *  12.22771344  *   1.99435972  *
   168       H          6.18594577  *   7.64170374  *   1.99074262  *
   169      Tv         10.57601200  *   0.00000000  *   0.00000000  *
   170      Tv          0.02775300  *  18.34397900  *   0.00000000  *
 

                   THE SYSTEM IS A LAYER STRUCTURE


                UNIT CELL TRANSLATION VECTORS

              X              Y              Z
    T1 =  10.5760120      0.0000000      0.0000000
    T2 =   0.0277530     18.3439790      0.0000000


          CARTESIAN COORDINATES 

    NO.       ATOM         X         Y         Z

     1        Mg        0.0000    0.0000    0.0000
     2        Mg       -2.6509   -4.5880    0.0000
     3        Mg       -2.6463   -1.5280    0.0000
     4        Mg        0.0046    3.0560    0.0000
     5        Mg        2.6463    1.5280   -0.0080
     6        Mg       -0.0006   -3.0560    0.0000
     7         O       -0.8830   -1.5295   -1.0987
     8         O        1.7646    3.0573   -1.1000
     9         O        0.8863    1.5267    1.1000
    10         O       -1.7613   -3.0545    1.0973
    11         O       -0.8836   -4.5895   -1.0907
    12         O        1.7640    0.0013   -1.1000
    13         O        0.8711   -4.5893    1.1016
    14         O       -0.3910    0.6806    3.2560
    15         O        0.4008   -0.6891   -3.2530
    16         O       -2.2600   -5.2686   -3.2560
    17         O       -3.0477   -3.9074    3.2600
    18         O       -0.4035   -3.7434    3.2767
    19         O       -2.2533   -0.8360   -3.2702
    20         O        0.3838   -5.4326   -3.2680
    21         O        2.2533    0.8446    3.2680
    22         O       -0.7828   -3.0633   -3.2544
    23         O        1.8583    1.5292   -3.2600
    24         O        0.7868    3.0548    3.2574
    25         O       -1.8485   -1.5247    3.2496
    26         O       -3.5334   -3.0614   -1.0560
    27         O       -0.8777    1.5253   -1.0560
    28         O       -1.7546    3.0614    1.0520
    29         O        0.8777   -1.5281    1.0480
    30        Si       -1.7600   -0.0013    2.7200
    31        Si       -0.8869   -4.5867   -2.7240
    32        Si        1.7640    0.0013   -2.7240
    33        Si        0.8682   -4.5893    2.7216
    34        Si       -0.8863   -1.5195   -2.7280
    35        Si        1.7646    3.0573   -2.7240
    36        Si        0.8863    1.5267    2.7200
    37        Si       -1.7564   -3.0503    2.7173
    38         O       -1.7640   -0.0013    1.1000
    39         H       -3.5437   -3.0579   -1.9980
    40         H       -0.8760    1.5323   -1.9983
    41         H       -1.7548    3.0557    1.9944
    42         H        0.8841   -1.5303    1.9907
    43        Mg        5.2880    0.0000    0.0000
    44        Mg        2.6371   -4.5880    0.0000
    45        Mg        2.6417   -1.5280    0.0000
    46        Mg        5.2926    3.0560    0.0000
    47        Mg        7.9343    1.5280   -0.0080
    48        Mg        5.2874   -3.0560    0.0000
    49         O        4.4050   -1.5295   -1.0987
    50         O        7.0526    3.0573   -1.1000
    51         O        6.1743    1.5267    1.1000
    52         O        3.5267   -3.0545    1.0973
    53         O        4.4044   -4.5895   -1.0907
    54         O        7.0520    0.0013   -1.1000
    55         O        6.1591   -4.5893    1.1016
    56         O        4.8970    0.6806    3.2560
    57         O        5.6888   -0.6891   -3.2530
    58         O        3.0280   -5.2686   -3.2560
    59         O        2.2403   -3.9074    3.2600
    60         O        4.8845   -3.7434    3.2767
    61         O        3.0347   -0.8360   -3.2702
    62         O        5.6718   -5.4326   -3.2680
    63         O        7.5413    0.8446    3.2680
    64         O        4.5052   -3.0633   -3.2544
    65         O        7.1463    1.5292   -3.2600
    66         O        6.0748    3.0548    3.2574
    67         O        3.4395   -1.5247    3.2496
    68         O        1.7546   -3.0614   -1.0560
    69         O        4.4103    1.5253   -1.0560
    70         O        3.5334    3.0614    1.0520
    71         O        6.1657   -1.5281    1.0480
    72        Si        3.5280   -0.0013    2.7200
    73        Si        4.4011   -4.5867   -2.7240
    74        Si        7.0520    0.0013   -2.7240
    75        Si        6.1562   -4.5893    2.7216
    76        Si        4.4017   -1.5195   -2.7280
    77        Si        7.0526    3.0573   -2.7240
    78        Si        6.1743    1.5267    2.7200
    79        Si        3.5316   -3.0503    2.7173
    80         O        3.5240   -0.0013    1.1000
    81         H        1.7443   -3.0579   -1.9980
    82         H        4.4120    1.5323   -1.9983
    83         H        3.5332    3.0557    1.9944
    84         H        6.1721   -1.5303    1.9907
    85        Mg        0.0139    9.1720    0.0000
    86        Mg       -2.6371    4.5840    0.0000
    87        Mg       -2.6324    7.6440    0.0000
    88        Mg        0.0185   12.2280    0.0000
    89        Mg        2.6602   10.7000   -0.0080
    90        Mg        0.0133    6.1160    0.0000
    91         O       -0.8691    7.6424   -1.0987
    92         O        1.7785   12.2293   -1.1000
    93         O        0.9002   10.6986    1.1000
    94         O       -1.7474    6.1175    1.0973
    95         O       -0.8697    4.5825   -1.0907
    96         O        1.7779    9.1733   -1.1000
    97         O        0.8850    4.5827    1.1016
    98         O       -0.3771    9.8526    3.2560
    99         O        0.4147    8.4829   -3.2530
   100         O       -2.2461    3.9034   -3.2560
   101         O       -3.0338    5.2646    3.2600
   102         O       -0.3896    5.4286    3.2767
   103         O       -2.2394    8.3360   -3.2702
   104         O        0.3977    3.7394   -3.2680
   105         O        2.2672   10.0166    3.2680
   106         O       -0.7689    6.1087   -3.2544
   107         O        1.8722   10.7012   -3.2600
   108         O        0.8007   12.2268    3.2574
   109         O       -1.8346    7.6473    3.2496
   110         O       -3.5195    6.1106   -1.0560
   111         O       -0.8638   10.6973   -1.0560
   112         O       -1.7407   12.2334    1.0520
   113         O        0.8916    7.6439    1.0480
   114        Si       -1.7461    9.1707    2.7200
   115        Si       -0.8731    4.5853   -2.7240
   116        Si        1.7779    9.1733   -2.7240
   117        Si        0.8821    4.5827    2.7216
   118        Si       -0.8724    7.6525   -2.7280
   119        Si        1.7785   12.2293   -2.7240
   120        Si        0.9002   10.6986    2.7200
   121        Si       -1.7425    6.1217    2.7173
   122         O       -1.7501    9.1707    1.1000
   123         H       -3.5298    6.1141   -1.9980
   124         H       -0.8621   10.7043   -1.9983
   125         H       -1.7409   12.2277    1.9944
   126         H        0.8979    7.6417    1.9907
   127        Mg        5.3019    9.1720    0.0000
   128        Mg        2.6509    4.5840    0.0000
   129        Mg        2.6556    7.6440    0.0000
   130        Mg        5.3065   12.2280    0.0000
   131        Mg        7.9482   10.7000   -0.0080
   132        Mg        5.3013    6.1160    0.0000
   133         O        4.4189    7.6424   -1.0987
   134         O        7.0665   12.2293   -1.1000
   135         O        6.1882   10.6986    1.1000
   136         O        3.5406    6.1175    1.0973
   137         O        4.4183    4.5825   -1.0907
   138         O        7.0659    9.1733   -1.1000
   139         O        6.1730    4.5827    1.1016
   140         O        4.9109    9.8526    3.2560
   141         O        5.7027    8.4829   -3.2530
   142         O        3.0419    3.9034   -3.2560
   143         O        2.2542    5.2646    3.2600
   144         O        4.8984    5.4286    3.2767
   145         O        3.0486    8.3360   -3.2702
   146         O        5.6857    3.7394   -3.2680
   147         O        7.5552   10.0166    3.2680
   148         O        4.5191    6.1087   -3.2544
   149         O        7.1602   10.7012   -3.2600
   150         O        6.0887   12.2268    3.2574
   151         O        3.4534    7.6473    3.2496
   152         O        1.7685    6.1106   -1.0560
   153         O        4.4242   10.6973   -1.0560
   154         O        3.5473   12.2334    1.0520
   155         O        6.1796    7.6439    1.0480
   156        Si        3.5419    9.1707    2.7200
   157        Si        4.4149    4.5853   -2.7240
   158        Si        7.0659    9.1733   -2.7240
   159        Si        6.1701    4.5827    2.7216
   160        Si        4.4156    7.6525   -2.7280
   161        Si        7.0665   12.2293   -2.7240
   162        Si        6.1882   10.6986    2.7200
   163        Si        3.5455    6.1217    2.7173
   164         O        3.5379    9.1707    1.1000
   165         H        1.7582    6.1141   -1.9980
   166         H        4.4259   10.7043   -1.9983
   167         H        3.5471   12.2277    1.9944
   168         H        6.1859    7.6417    1.9907

     ===================== shared-memory parallel CPU Section ======================
     **                                                                           **
     **  MOPAC calculations will run in shared-memory parallel CPUs               **
     **                                                                           **
     **  Number of Threads =  4                                                   **
     **                                                                           **
     **                                                                           **
     **  For information on this work, see:                                       **
     **                                                                           **
     **  Maia, J.D.C., et al., J. Chem. Theory Comput. 2012, 8, 3072-3081.        **
     **        DOI: 10.1021/ct3004645.                                            **
     **                                                                           **
     ===================== shared-memory parallel CPU Section ======================
      


 General Reference for PM7:
 "Optimization of Parameters for Semiempirical Methods VI: More Modifications to the 
 NDDO Approximations and Re-optimization of Parameters", J. J. P. Stewart, J. Mol. Mod., 1:32, 19 (2013)
 http://www.springerlink.com/openurl.asp?genre=article&id=doi:10.1007/s00894-012-1667-x

           Empirical Formula: H16 O96 Mg24 Si32  =   168 atoms



      RHF CALCULATION, NO. OF DOUBLY OCCUPIED LEVELS =  384

      Geometry optimization using EF
 ITERATION   1 PLS= 0.100E+01 0.000E+00 ENERGY   326403.154680 DELTAE    0.0000000
 ITERATION   2 PLS= 0.124E+01 0.000E+00 ENERGY    19665.645762 DELTAE    0.0000000
 ITERATION   3 PLS= 0.915E-01 0.000E+00 ENERGY     9749.501523 DELTAE-9916.1442388
 ITERATION   4 PLS= 0.938E-01 0.000E+00 ENERGY     3059.110384 DELTAE-6690.3911389
 ITERATION   5 PLS= 0.844E-01 0.000E+00 ENERGY    -3915.574410 DELTAE-6974.6847940
 ITERATION   6 PLS= 0.929E-01 0.000E+00 ENERGY    -6849.503877 DELTAE-2933.9294676
 ITERATION   7 PLS= 0.851E-01 0.000E+00 ENERGY   -61051.566554 DELTAE    0.0000000
 ITERATION   8 PLS= 0.173E+00 0.000E+00 ENERGY   -23423.171764 DELTAE    0.0000000
 ITERATION   9 PLS= 0.112E+00 0.000E+00 ENERGY   -12889.490905 DELTAE    0.0000000
 ITERATION  10 PLS= 0.768E-01 0.000E+00 ENERGY    -5304.308096 DELTAE 7585.1828088
 ITERATION  11 PLS= 0.606E-01 0.000E+00 ENERGY   -10008.585114 DELTAE-4704.2770184
 ITERATION  12 PLS= 0.321E-01 0.000E+00 ENERGY   -10108.647735 DELTAE -100.0626205
 ITERATION  13 PLS= 0.207E-01 0.000E+00 ENERGY   -10922.765556 DELTAE -814.1178208
 ITERATION  14 PLS= 0.106E-01 0.000E+00 ENERGY   -10388.837484 DELTAE  533.9280720
 ITERATION  15 PLS= 0.800E-02 0.000E+00 ENERGY   -10413.860070 DELTAE  -25.0225862
 ITERATION  16 PLS= 0.838E-02 0.000E+00 ENERGY   -10439.194228 DELTAE  -25.3341582
 ITERATION  17 PLS= 0.641E-02 0.000E+00 ENERGY   -10456.271586 DELTAE  -17.0773585
 ITERATION  18 PLS= 0.541E-02 0.000E+00 ENERGY   -10469.965962 DELTAE  -13.6943755
 ITERATION  19 PLS= 0.468E-02 0.000E+00 ENERGY   -11001.933498 DELTAE -531.9675356
 ITERATION  20 PLS= 0.426E-02 0.000E+00 ENERGY   -10526.888713 DELTAE  475.0447851
 ITERATION  21 PLS= 0.140E-02 0.000E+00 ENERGY   -10534.191074 DELTAE   -7.3023615
 ITERATION  22 PLS= 0.161E-02 0.000E+00 ENERGY   -10706.598743 DELTAE -172.4076694
 ITERATION  23 PLS= 0.364E-02 0.000E+00 ENERGY   -10549.871758 DELTAE  156.7269850
 ITERATION  24 PLS= 0.854E-03 0.000E+00 ENERGY   -10551.767750 DELTAE   -1.8959920
 ITERATION  25 PLS= 0.941E-03 0.000E+00 ENERGY   -10581.080362 DELTAE  -29.3126115
 ITERATION  26 PLS= 0.132E-02 0.000E+00 ENERGY   -10555.813328 DELTAE   25.2670337
 ITERATION  27 PLS= 0.425E-03 0.000E+00 ENERGY   -10556.276739 DELTAE   -0.4634113
 ITERATION  28 PLS= 0.612E-03 0.000E+00 ENERGY   -10561.622575 DELTAE   -5.3458358
 ITERATION  29 PLS= 0.716E-03 0.000E+00 ENERGY   -10557.471826 DELTAE    4.1507493
 ITERATION  30 PLS= 0.311E-03 0.000E+00 ENERGY   -10557.646961 DELTAE   -0.1751355
 ITERATION  31 PLS= 0.481E-03 0.000E+00 ENERGY   -10560.133305 DELTAE   -2.4863435
 ITERATION  32 PLS= 0.528E-03 0.000E+00 ENERGY   -10558.255754 DELTAE    1.8775509
 ITERATION  33 PLS= 0.251E-03 0.000E+00 ENERGY   -10558.359515 DELTAE   -0.1037613
 ITERATION  34 PLS= 0.384E-03 0.000E+00 ENERGY   -10559.883573 DELTAE   -1.5240581
 ITERATION  35 PLS= 0.410E-03 0.000E+00 ENERGY   -10558.736051 DELTAE    1.1475225
 ITERATION  36 PLS= 0.217E-03 0.000E+00 ENERGY   -10558.807075 DELTAE   -0.0710240
 ITERATION  37 PLS= 0.308E-03 0.000E+00 ENERGY   -10559.821871 DELTAE   -1.0147961
 ITERATION  38 PLS= 0.365E-03 0.000E+00 ENERGY   -10559.045620 DELTAE    0.7762510
 ITERATION  39 PLS= 0.167E-03 0.000E+00 ENERGY   -10559.095083 DELTAE   -0.0494626
 ITERATION  40 PLS= 0.160E-03 0.000E+00 ENERGY   -10559.634078 DELTAE   -0.5389958
 ITERATION  41 PLS= 0.214E-03 0.000E+00 ENERGY   -10559.203184 DELTAE    0.4308942
 ITERATION  42 PLS= 0.177E-03 0.000E+00 ENERGY   -10559.266116 DELTAE   -0.0629314
 ITERATION  43 PLS= 0.159E-03 0.000E+00 ENERGY   -10559.872536 DELTAE   -0.6064209
 ITERATION  44 PLS= 0.178E-03 0.000E+00 ENERGY   -10559.401166 DELTAE    0.4713708
 ITERATION  45 PLS= 0.897E-04 0.000E+00 ENERGY   -10559.429815 DELTAE   -0.0286498
 ITERATION  46 PLS= 0.814E-04 0.000E+00 ENERGY   -10559.552935 DELTAE   -0.1231198
 ITERATION  47 PLS= 0.704E-04 0.000E+00 ENERGY   -10559.468726 DELTAE    0.0842088
 ITERATION  48 PLS= 0.754E-04 0.000E+00 ENERGY   -10559.484059 DELTAE   -0.0153323
 ITERATION  49 PLS= 0.627E-04 0.000E+00 ENERGY   -10559.523446 DELTAE   -0.0393868
 ITERATION  50 PLS= 0.274E-04 0.000E+00 ENERGY   -10559.499266 DELTAE    0.0241801
 ITERATION  51 PLS= 0.562E-04 0.000E+00 ENERGY   -10559.507342 DELTAE   -0.0080760
 ITERATION  52 PLS= 0.398E-04 0.000E+00 ENERGY   -10559.526384 DELTAE   -0.0190429
 ITERATION  53 PLS= 0.301E-04 0.000E+00 ENERGY   -10559.514878 DELTAE    0.0115064
 ITERATION  54 PLS= 0.588E-04 0.000E+00 ENERGY   -10559.521590 DELTAE   -0.0067119
 ITERATION  55 PLS= 0.318E-04 0.000E+00 ENERGY   -10559.532446 DELTAE   -0.0108560
 ITERATION  56 PLS= 0.272E-04 0.000E+00 ENERGY   -10559.526564 DELTAE    0.0058820
 ITERATION  57 PLS= 0.528E-04 0.000E+00 ENERGY   -10559.531931 DELTAE   -0.0053670
 ITERATION  58 PLS= 0.271E-04 0.000E+00 ENERGY   -10559.540211 DELTAE   -0.0082802
 ITERATION  59 PLS= 0.231E-04 0.000E+00 ENERGY   -10559.535699 DELTAE    0.0045118
 ITERATION  60 PLS= 0.536E-04 0.000E+00 ENERGY   -10559.540381 DELTAE   -0.0046823
 ITERATION  61 PLS= 0.275E-04 0.000E+00 ENERGY   -10559.547771 DELTAE   -0.0073899
 ITERATION  62 PLS= 0.223E-04 0.000E+00 ENERGY   -10559.543574 DELTAE    0.0041971
 ITERATION  63 PLS= 0.454E-04 0.000E+00 ENERGY   -10559.547542 DELTAE   -0.0039680
 ITERATION  64 PLS= 0.250E-04 0.000E+00 ENERGY   -10559.553159 DELTAE   -0.0056163
 ITERATION  65 PLS= 0.193E-04 0.000E+00 ENERGY   -10559.550041 DELTAE    0.0031177
 ITERATION  66 PLS= 0.412E-04 0.000E+00 ENERGY   -10559.553253 DELTAE   -0.0032117
 ITERATION  67 PLS= 0.213E-04 0.000E+00 ENERGY   -10559.557909 DELTAE   -0.0046567
 ITERATION  68 PLS= 0.177E-04 0.000E+00 ENERGY   -10559.555250 DELTAE    0.0026596
 ITERATION  69 PLS= 0.377E-04 0.000E+00 ENERGY   -10559.557905 DELTAE   -0.0026557
 ITERATION  70 PLS= 0.215E-04 0.000E+00 ENERGY   -10559.561904 DELTAE   -0.0039984
 ITERATION  71 PLS= 0.142E-04 0.000E+00 ENERGY   -10559.559547 DELTAE    0.0023566
 ITERATION  72 PLS= 0.343E-04 0.000E+00 ENERGY   -10559.561742 DELTAE   -0.0021952
 ITERATION  73 PLS= 0.174E-04 0.000E+00 ENERGY   -10559.564769 DELTAE   -0.0030261
 ITERATION  74 PLS= 0.124E-04 0.000E+00 ENERGY   -10559.563033 DELTAE    0.0017356
 ITERATION  75 PLS= 0.288E-04 0.000E+00 ENERGY   -10559.564771 DELTAE   -0.0017376
 ITERATION  76 PLS= 0.159E-04 0.000E+00 ENERGY   -10559.567335 DELTAE   -0.0025641
 ITERATION  77 PLS= 0.140E-04 0.000E+00 ENERGY   -10559.565803 DELTAE    0.0015322
 ITERATION  78 PLS= 0.264E-04 0.000E+00 ENERGY   -10559.567268 DELTAE   -0.0014654
 ITERATION  79 PLS= 0.143E-04 0.000E+00 ENERGY   -10559.569183 DELTAE   -0.0019152
 ITERATION  80 PLS= 0.103E-04 0.000E+00 ENERGY   -10559.568090 DELTAE    0.0010936
 ITERATION  81 PLS= 0.237E-04 0.000E+00 ENERGY   -10559.569249 DELTAE   -0.0011596
 ITERATION  82 PLS= 0.140E-04 0.000E+00 ENERGY   -10559.570728 DELTAE   -0.0014786
 ITERATION  83 PLS= 0.875E-05 0.000E+00 ENERGY   -10559.569898 DELTAE    0.0008298
 ITERATION  84 PLS= 0.218E-04 0.000E+00 ENERGY   -10559.570827 DELTAE   -0.0009285
 ITERATION  85 PLS= 0.111E-04 0.000E+00 ENERGY   -10559.572103 DELTAE   -0.0012768
 ITERATION  86 PLS= 0.866E-05 0.000E+00 ENERGY   -10559.571357 DELTAE    0.0007465
 ITERATION  87 PLS= 0.199E-04 0.000E+00 ENERGY   -10559.572145 DELTAE   -0.0007881
 ITERATION  88 PLS= 0.115E-04 0.000E+00 ENERGY   -10559.573125 DELTAE   -0.0009804
 ITERATION  89 PLS= 0.721E-05 0.000E+00 ENERGY   -10559.572570 DELTAE    0.0005556
 ITERATION  90 PLS= 0.165E-04 0.000E+00 ENERGY   -10559.573194 DELTAE   -0.0006240
 ITERATION  91 PLS= 0.909E-05 0.000E+00 ENERGY   -10559.574021 DELTAE   -0.0008273
 ITERATION  92 PLS= 0.633E-05 0.000E+00 ENERGY   -10559.573540 DELTAE    0.0004810
 ITERATION  93 PLS= 0.146E-04 0.000E+00 ENERGY   -10559.574056 DELTAE   -0.0005159
 ITERATION  94 PLS= 0.928E-05 0.000E+00 ENERGY   -10559.574715 DELTAE   -0.0006590
 ITERATION  95 PLS= 0.637E-05 0.000E+00 ENERGY   -10559.574336 DELTAE    0.0003787
 ITERATION  96 PLS= 0.140E-04 0.000E+00 ENERGY   -10559.574755 DELTAE   -0.0004188
 ITERATION  97 PLS= 0.851E-05 0.000E+00 ENERGY   -10559.575285 DELTAE   -0.0005298
 ITERATION  98 PLS= 0.496E-05 0.000E+00 ENERGY   -10559.574980 DELTAE    0.0003048
 ITERATION  99 PLS= 0.132E-04 0.000E+00 ENERGY   -10559.575323 DELTAE   -0.0003425
 ITERATION 100 PLS= 0.732E-05 0.000E+00 ENERGY   -10559.575760 DELTAE   -0.0004375
 ITERATION 101 PLS= 0.492E-05 0.000E+00 ENERGY   -10559.575507 DELTAE    0.0002530
 ITERATION 102 PLS= 0.109E-04 0.000E+00 ENERGY   -10559.575784 DELTAE   -0.0002773
 ITERATION 103 PLS= 0.663E-05 0.000E+00 ENERGY   -10559.576162 DELTAE   -0.0003777
 ITERATION 104 PLS= 0.494E-05 0.000E+00 ENERGY   -10559.575936 DELTAE    0.0002264
 ITERATION 105 PLS= 0.101E-04 0.000E+00 ENERGY   -10559.576168 DELTAE   -0.0002319
 ITERATION 106 PLS= 0.522E-05 0.000E+00 ENERGY   -10559.576464 DELTAE   -0.0002966
 ITERATION 107 PLS= 0.418E-05 0.000E+00 ENERGY   -10559.576289 DELTAE    0.0001756
 ITERATION 108 PLS= 0.952E-05 0.000E+00 ENERGY   -10559.576477 DELTAE   -0.0001888
 ITERATION 109 PLS= 0.513E-05 0.000E+00 ENERGY   -10559.576709 DELTAE   -0.0002315
 ITERATION 110 PLS= 0.321E-05 0.000E+00 ENERGY   -10559.576575 DELTAE    0.0001338
 ITERATION 111 PLS= 0.779E-05 0.000E+00 ENERGY   -10559.576727 DELTAE   -0.0001518
 ITERATION 112 PLS= 0.430E-05 0.000E+00 ENERGY   -10559.576907 DELTAE   -0.0001802
 ITERATION 113 PLS= 0.328E-05 0.000E+00 ENERGY   -10559.576804 DELTAE    0.0001029
 ITERATION 114 PLS= 0.761E-05 0.000E+00 ENERGY   -10559.576928 DELTAE   -0.0001233
 ITERATION 115 PLS= 0.390E-05 0.000E+00 ENERGY   -10559.577085 DELTAE   -0.0001574

          DIAGONAL MATRIX USED AS START HESSIAN

 ITERATION   1 PLS= 0.288E-05 0.000E+00 ENERGY   -10562.981045 DELTAE    0.0000000
 ITERATION   2 PLS= 0.247E-03 0.000E+00 ENERGY   -10563.051835 DELTAE   -0.0707907
 ITERATION   3 PLS= 0.168E-03 0.000E+00 ENERGY   -10563.091743 DELTAE   -0.0399077
 ITERATION   4 PLS= 0.130E-03 0.000E+00 ENERGY   -10563.325101 DELTAE   -0.2333579
 ITERATION   5 PLS= 0.558E-04 0.000E+00 ENERGY   -10563.163722 DELTAE    0.1613795
 ITERATION   6 PLS= 0.534E-04 0.000E+00 ENERGY   -10563.168155 DELTAE   -0.0044336
 ITERATION   7 PLS= 0.479E-04 0.000E+00 ENERGY   -10563.234038 DELTAE   -0.0658828
 ITERATION   8 PLS= 0.219E-04 0.000E+00 ENERGY   -10563.182456 DELTAE    0.0515823
 CYCLE:     1 TIME:  39.371 TIME LEFT:  2.00D  GRAD.:   399.301 HEAT: -10559.58
 ITERATION   1 PLS= 0.166E-04 0.000E+00 ENERGY   -10582.408345 DELTAE    0.0000000
 ITERATION   2 PLS= 0.204E-02 0.000E+00 ENERGY   -10588.458038 DELTAE   -6.0496937
 ITERATION   3 PLS= 0.143E-02 0.000E+00 ENERGY   -10591.592352 DELTAE   -3.1343134
 ITERATION   4 PLS= 0.113E-02 0.000E+00 ENERGY   -10616.133475 DELTAE  -24.5411236
 ITERATION   5 PLS= 0.671E-03 0.000E+00 ENERGY   -10597.686294 DELTAE   18.4471810
 ITERATION   6 PLS= 0.720E-03 0.000E+00 ENERGY   -10598.251654 DELTAE   -0.5653596
 ITERATION   7 PLS= 0.681E-03 0.000E+00 ENERGY   -10610.053905 DELTAE  -11.8022509
 ITERATION   8 PLS= 0.602E-03 0.000E+00 ENERGY   -10599.903902 DELTAE   10.1500027
 ITERATION   9 PLS= 0.203E-03 0.000E+00 ENERGY   -10600.049891 DELTAE   -0.1459887
 ITERATION  10 PLS= 0.242E-03 0.000E+00 ENERGY   -10601.892814 DELTAE   -1.8429233
 ITERATION  11 PLS= 0.248E-03 0.000E+00 ENERGY   -10600.404042 DELTAE    1.4887721
 CYCLE:     2 TIME:  13.961 TIME LEFT:  2.00D  GRAD.:   191.458 HEAT: -10600.43
 ITERATION   1 PLS= 0.130E-03 0.000E+00 ENERGY   -10582.722109 DELTAE    0.0000000
 ITERATION   2 PLS= 0.460E-02 0.000E+00 ENERGY   -10595.744635 DELTAE  -13.0225260
 ITERATION   3 PLS= 0.322E-02 0.000E+00 ENERGY   -10602.681372 DELTAE   -6.9367371
 ITERATION   4 PLS= 0.286E-02 0.000E+00 ENERGY   -10682.967205 DELTAE  -80.2858330
 ITERATION   5 PLS= 0.126E-02 0.000E+00 ENERGY   -10617.333640 DELTAE   65.6335650
 ITERATION   6 PLS= 0.865E-03 0.000E+00 ENERGY   -10618.704680 DELTAE   -1.3710402
 ITERATION   7 PLS= 0.792E-03 0.000E+00 ENERGY   -10636.765113 DELTAE  -18.0604330
 ITERATION   8 PLS= 0.757E-03 0.000E+00 ENERGY   -10621.908730 DELTAE   14.8563833
 ITERATION   9 PLS= 0.341E-03 0.000E+00 ENERGY   -10622.226786 DELTAE   -0.3180560
 ITERATION  10 PLS= 0.359E-03 0.000E+00 ENERGY   -10626.963336 DELTAE   -4.7365505
 ITERATION  11 PLS= 0.371E-03 0.000E+00 ENERGY   -10623.075522 DELTAE    3.8878145
 ITERATION  12 PLS= 0.220E-03 0.000E+00 ENERGY   -10623.165016 DELTAE   -0.0894944
 ITERATION  13 PLS= 0.222E-03 0.000E+00 ENERGY   -10624.918113 DELTAE   -1.7530968
 ITERATION  14 PLS= 0.220E-03 0.000E+00 ENERGY   -10623.453629 DELTAE    1.4644844
 ITERATION  15 PLS= 0.108E-03 0.000E+00 ENERGY   -10623.480050 DELTAE   -0.0264210
 ITERATION  16 PLS= 0.124E-03 0.000E+00 ENERGY   -10623.926482 DELTAE   -0.4464327
 ITERATION  17 PLS= 0.174E-03 0.000E+00 ENERGY   -10623.564230 DELTAE    0.3622523
 CYCLE:     3 TIME:  14.906 TIME LEFT:  2.00D  GRAD.:   284.228 HEAT: -10623.57
 ITERATION   1 PLS= 0.724E-04 0.000E+00 ENERGY   -10496.899020 DELTAE    0.0000000
 ITERATION   2 PLS= 0.876E-02 0.000E+00 ENERGY   -10535.314441 DELTAE  -38.4154203
 ITERATION   3 PLS= 0.656E-02 0.000E+00 ENERGY   -10555.676970 DELTAE  -20.3625296
 ITERATION   4 PLS= 0.530E-02 0.000E+00 ENERGY   -10696.645620 DELTAE -140.9686496
 ITERATION   5 PLS= 0.196E-02 0.000E+00 ENERGY   -10593.318605 DELTAE  103.3270154
 ITERATION   6 PLS= 0.139E-02 0.000E+00 ENERGY   -10596.010653 DELTAE   -2.6920481
 ITERATION   7 PLS= 0.131E-02 0.000E+00 ENERGY   -10652.402328 DELTAE  -56.3916753
 ITERATION   8 PLS= 0.150E-02 0.000E+00 ENERGY   -10605.118364 DELTAE   47.2839640
 ITERATION   9 PLS= 0.402E-03 0.000E+00 ENERGY   -10605.651304 DELTAE   -0.5329403
 ITERATION  10 PLS= 0.405E-03 0.000E+00 ENERGY   -10612.247558 DELTAE   -6.5962536
 ITERATION  11 PLS= 0.370E-03 0.000E+00 ENERGY   -10607.094952 DELTAE    5.1526052
 ITERATION  12 PLS= 0.295E-03 0.000E+00 ENERGY   -10607.233722 DELTAE   -0.1387698
 ITERATION  13 PLS= 0.291E-03 0.000E+00 ENERGY   -10609.522919 DELTAE   -2.2891967
 ITERATION  14 PLS= 0.372E-03 0.000E+00 ENERGY   -10607.692939 DELTAE    1.8299795
 ITERATION  15 PLS= 0.165E-03 0.000E+00 ENERGY   -10607.731227 DELTAE   -0.0382880
 ITERATION  16 PLS= 0.189E-03 0.000E+00 ENERGY   -10608.188468 DELTAE   -0.4572407
 ITERATION  17 PLS= 0.239E-03 0.000E+00 ENERGY   -10607.858752 DELTAE    0.3297159
 ITERATION   1 PLS= 0.116E-03 0.000E+00 ENERGY   -10604.888469 DELTAE    0.0000000
 ITERATION   2 PLS= 0.447E-02 0.000E+00 ENERGY   -10613.495749 DELTAE   -8.6072798
 ITERATION   3 PLS= 0.323E-02 0.000E+00 ENERGY   -10618.146152 DELTAE   -4.6504034
 ITERATION   4 PLS= 0.245E-02 0.000E+00 ENERGY   -10648.501118 DELTAE  -30.3549659
 ITERATION   5 PLS= 0.861E-03 0.000E+00 ENERGY   -10626.135486 DELTAE   22.3656325
 ITERATION   6 PLS= 0.616E-03 0.000E+00 ENERGY   -10626.707224 DELTAE   -0.5717382
 ITERATION   7 PLS= 0.573E-03 0.000E+00 ENERGY   -10637.370809 DELTAE  -10.6635848
 ITERATION   8 PLS= 0.750E-03 0.000E+00 ENERGY   -10628.439046 DELTAE    8.9317627
 ITERATION   9 PLS= 0.166E-03 0.000E+00 ENERGY   -10628.559963 DELTAE   -0.1209166
 ITERATION  10 PLS= 0.155E-03 0.000E+00 ENERGY   -10630.447719 DELTAE   -1.8877561
 ITERATION  11 PLS= 0.183E-03 0.000E+00 ENERGY   -10628.888379 DELTAE    1.5593397
 ITERATION  12 PLS= 0.105E-03 0.000E+00 ENERGY   -10628.917797 DELTAE   -0.0294178
 ITERATION  13 PLS= 0.998E-04 0.000E+00 ENERGY   -10629.420984 DELTAE   -0.5031874
 ITERATION  14 PLS= 0.148E-03 0.000E+00 ENERGY   -10629.002973 DELTAE    0.4180109
 ITERATION  15 PLS= 0.601E-04 0.000E+00 ENERGY   -10629.010996 DELTAE   -0.0080224
 ITERATION  16 PLS= 0.563E-04 0.000E+00 ENERGY   -10629.084703 DELTAE   -0.0737068
 ITERATION  17 PLS= 0.384E-04 0.000E+00 ENERGY   -10629.029958 DELTAE    0.0547443
 CYCLE:     4 TIME:  29.746 TIME LEFT:  2.00D  GRAD.:   144.199 HEAT: -10629.03
 ITERATION   1 PLS= 0.428E-04 0.000E+00 ENERGY   -10612.320629 DELTAE    0.0000000
 ITERATION   2 PLS= 0.301E-02 0.000E+00 ENERGY   -10619.804634 DELTAE   -7.4840049
 ITERATION   3 PLS= 0.212E-02 0.000E+00 ENERGY   -10623.688817 DELTAE   -3.8841826
 ITERATION   4 PLS= 0.155E-02 0.000E+00 ENERGY   -10646.143161 DELTAE  -22.4543436
 ITERATION   5 PLS= 0.627E-03 0.000E+00 ENERGY   -10630.383669 DELTAE   15.7594918
 ITERATION   6 PLS= 0.538E-03 0.000E+00 ENERGY   -10630.997598 DELTAE   -0.6139295
 ITERATION   7 PLS= 0.532E-03 0.000E+00 ENERGY   -10641.635467 DELTAE  -10.6378683
 ITERATION   8 PLS= 0.550E-03 0.000E+00 ENERGY   -10632.845486 DELTAE    8.7899808
 ITERATION   9 PLS= 0.184E-03 0.000E+00 ENERGY   -10632.946813 DELTAE   -0.1013276
 ITERATION  10 PLS= 0.215E-03 0.000E+00 ENERGY   -10633.812876 DELTAE   -0.8660627
 ITERATION  11 PLS= 0.206E-03 0.000E+00 ENERGY   -10633.196294 DELTAE    0.6165818
 ITERATION  12 PLS= 0.135E-03 0.000E+00 ENERGY   -10633.221946 DELTAE   -0.0256516
 ITERATION  13 PLS= 0.132E-03 0.000E+00 ENERGY   -10633.458107 DELTAE   -0.2361611
 ITERATION  14 PLS= 0.125E-03 0.000E+00 ENERGY   -10633.299121 DELTAE    0.1589856
 ITERATION  15 PLS= 0.104E-03 0.000E+00 ENERGY   -10633.320766 DELTAE   -0.0216444
 ITERATION  16 PLS= 0.975E-04 0.000E+00 ENERGY   -10633.391832 DELTAE   -0.0710663
 CYCLE:     5 TIME:  14.688 TIME LEFT:  2.00D  GRAD.:   173.212 HEAT: -10633.35
 ITERATION   1 PLS= 0.971E-04 0.000E+00 ENERGY   -10626.573415 DELTAE    0.0000000
 ITERATION   2 PLS= 0.386E-02 0.000E+00 ENERGY   -10632.544386 DELTAE   -5.9709706
 ITERATION   3 PLS= 0.241E-02 0.000E+00 ENERGY   -10635.253166 DELTAE   -2.7087806
 ITERATION   4 PLS= 0.209E-02 0.000E+00 ENERGY   -10649.255514 DELTAE  -14.0023474
 ITERATION   5 PLS= 0.658E-03 0.000E+00 ENERGY   -10639.895322 DELTAE    9.3601917
 ITERATION   6 PLS= 0.753E-03 0.000E+00 ENERGY   -10640.696057 DELTAE   -0.8007351
 ITERATION   7 PLS= 0.652E-03 0.000E+00 ENERGY   -10658.640558 DELTAE  -17.9445009
 ITERATION   8 PLS= 0.468E-03 0.000E+00 ENERGY   -10642.739851 DELTAE   15.9007066
 ITERATION   9 PLS= 0.298E-03 0.000E+00 ENERGY   -10642.918777 DELTAE   -0.1789261
 ITERATION  10 PLS= 0.259E-03 0.000E+00 ENERGY   -10644.287009 DELTAE   -1.3682321
 ITERATION  11 PLS= 0.189E-03 0.000E+00 ENERGY   -10643.175287 DELTAE    1.1117220
 ITERATION  12 PLS= 0.956E-04 0.000E+00 ENERGY   -10643.193713 DELTAE   -0.0184254
 ITERATION  13 PLS= 0.110E-03 0.000E+00 ENERGY   -10643.357645 DELTAE   -0.1639316
 ITERATION  14 PLS= 0.150E-03 0.000E+00 ENERGY   -10643.244735 DELTAE    0.1129100
 CYCLE:     6 TIME:  14.520 TIME LEFT:  2.00D  GRAD.:   134.298 HEAT: -10643.25
 ITERATION   1 PLS= 0.750E-04 0.000E+00 ENERGY   -10609.191651 DELTAE    0.0000000
 ITERATION   2 PLS= 0.617E-02 0.000E+00 ENERGY   -10620.631391 DELTAE  -11.4397392
 ITERATION   3 PLS= 0.466E-02 0.000E+00 ENERGY   -10626.662808 DELTAE   -6.0314170
 ITERATION   4 PLS= 0.366E-02 0.000E+00 ENERGY   -10660.908131 DELTAE  -34.2453234
 ITERATION   5 PLS= 0.921E-03 0.000E+00 ENERGY   -10637.098204 DELTAE   23.8099275
 ITERATION   6 PLS= 0.829E-03 0.000E+00 ENERGY   -10637.967644 DELTAE   -0.8694405
 ITERATION   7 PLS= 0.805E-03 0.000E+00 ENERGY   -10653.810887 DELTAE  -15.8432433
 ITERATION   8 PLS= 0.919E-03 0.000E+00 ENERGY   -10640.754861 DELTAE   13.0560267
 ITERATION   9 PLS= 0.325E-03 0.000E+00 ENERGY   -10640.922077 DELTAE   -0.1672161
 ITERATION  10 PLS= 0.328E-03 0.000E+00 ENERGY   -10643.589942 DELTAE   -2.6678651
 ITERATION  11 PLS= 0.241E-03 0.000E+00 ENERGY   -10641.409608 DELTAE    2.1803339
 ITERATION  12 PLS= 0.194E-03 0.000E+00 ENERGY   -10641.442801 DELTAE   -0.0331931
 ITERATION  13 PLS= 0.213E-03 0.000E+00 ENERGY   -10641.798366 DELTAE   -0.3555648
 ITERATION  14 PLS= 0.237E-03 0.000E+00 ENERGY   -10641.539415 DELTAE    0.2589509
 ITERATION  15 PLS= 0.123E-03 0.000E+00 ENERGY   -10641.550329 DELTAE   -0.0109142
 ITERATION  16 PLS= 0.112E-03 0.000E+00 ENERGY   -10641.679708 DELTAE   -0.1293783
 ITERATION  17 PLS= 0.919E-04 0.000E+00 ENERGY   -10641.587931 DELTAE    0.0917762
 ITERATION  18 PLS= 0.105E-03 0.000E+00 ENERGY   -10641.597913 DELTAE   -0.0099819
 ITERATION  19 PLS= 0.965E-04 0.000E+00 ENERGY   -10641.633526 DELTAE   -0.0356123
 ITERATION  20 PLS= 0.762E-04 0.000E+00 ENERGY   -10641.614283 DELTAE    0.0192423
 ITERATION   1 PLS= 0.811E-04 0.000E+00 ENERGY   -10640.462106 DELTAE    0.0000000
 ITERATION   2 PLS= 0.305E-02 0.000E+00 ENERGY   -10643.097260 DELTAE   -2.6351535
 ITERATION   3 PLS= 0.213E-02 0.000E+00 ENERGY   -10644.465762 DELTAE   -1.3685026
 ITERATION   4 PLS= 0.160E-02 0.000E+00 ENERGY   -10651.894193 DELTAE   -7.4284304
 ITERATION   5 PLS= 0.429E-03 0.000E+00 ENERGY   -10646.749737 DELTAE    5.1444555
 ITERATION   6 PLS= 0.394E-03 0.000E+00 ENERGY   -10646.943231 DELTAE   -0.1934938
 ITERATION   7 PLS= 0.366E-03 0.000E+00 ENERGY   -10650.333707 DELTAE   -3.3904759
 ITERATION   8 PLS= 0.408E-03 0.000E+00 ENERGY   -10647.539186 DELTAE    2.7945208
 ITERATION   9 PLS= 0.131E-03 0.000E+00 ENERGY   -10647.577752 DELTAE   -0.0385657
 ITERATION  10 PLS= 0.128E-03 0.000E+00 ENERGY   -10648.085869 DELTAE   -0.5081165
 ITERATION  11 PLS= 0.109E-03 0.000E+00 ENERGY   -10647.683236 DELTAE    0.4026330
 ITERATION  12 PLS= 0.787E-04 0.000E+00 ENERGY   -10647.691590 DELTAE   -0.0083547
 ITERATION  13 PLS= 0.755E-04 0.000E+00 ENERGY   -10647.858144 DELTAE   -0.1665534
 ITERATION  14 PLS= 0.513E-04 0.000E+00 ENERGY   -10647.719529 DELTAE    0.1386143
 CYCLE:     7 TIME:  29.461 TIME LEFT:  2.00D  GRAD.:   117.957 HEAT: -10647.72
 ITERATION   1 PLS= 0.332E-04 0.000E+00 ENERGY   -10641.049777 DELTAE    0.0000000
 ITERATION   2 PLS= 0.309E-02 0.000E+00 ENERGY   -10645.480042 DELTAE   -4.4302651
 ITERATION   3 PLS= 0.219E-02 0.000E+00 ENERGY   -10647.782098 DELTAE   -2.3020565
 ITERATION   4 PLS= 0.173E-02 0.000E+00 ENERGY   -10660.806408 DELTAE  -13.0243098
 ITERATION   5 PLS= 0.703E-03 0.000E+00 ENERGY   -10651.811443 DELTAE    8.9949649
 ITERATION   6 PLS= 0.558E-03 0.000E+00 ENERGY   -10652.196342 DELTAE   -0.3848990
 ITERATION   7 PLS= 0.553E-03 0.000E+00 ENERGY   -10660.191750 DELTAE   -7.9954080
 ITERATION   8 PLS= 0.591E-03 0.000E+00 ENERGY   -10653.377547 DELTAE    6.8142030
 ITERATION   9 PLS= 0.196E-03 0.000E+00 ENERGY   -10653.451229 DELTAE   -0.0736820
 ITERATION  10 PLS= 0.185E-03 0.000E+00 ENERGY   -10654.310409 DELTAE   -0.8591803
 ITERATION  11 PLS= 0.143E-03 0.000E+00 ENERGY   -10653.617011 DELTAE    0.6933980
 ITERATION  12 PLS= 0.116E-03 0.000E+00 ENERGY   -10653.629687 DELTAE   -0.0126756
 ITERATION  13 PLS= 0.107E-03 0.000E+00 ENERGY   -10653.714175 DELTAE   -0.0844885
 ITERATION  14 PLS= 0.644E-04 0.000E+00 ENERGY   -10653.659838 DELTAE    0.0543371
 CYCLE:     8 TIME:  14.289 TIME LEFT:  2.00D  GRAD.:   109.505 HEAT: -10653.67
 ITERATION   1 PLS= 0.869E-04 0.000E+00 ENERGY   -10637.309571 DELTAE    0.0000000
 ITERATION   2 PLS= 0.280E-02 0.000E+00 ENERGY   -10645.127930 DELTAE   -7.8183585
 ITERATION   3 PLS= 0.199E-02 0.000E+00 ENERGY   -10649.245926 DELTAE   -4.1179965
 ITERATION   4 PLS= 0.149E-02 0.000E+00 ENERGY   -10676.301283 DELTAE  -27.0553570
 ITERATION   5 PLS= 0.786E-03 0.000E+00 ENERGY   -10656.649222 DELTAE   19.6520610
 ITERATION   6 PLS= 0.490E-03 0.000E+00 ENERGY   -10657.161402 DELTAE   -0.5121795
 ITERATION   7 PLS= 0.552E-03 0.000E+00 ENERGY   -10663.266281 DELTAE   -6.1048797
 ITERATION   8 PLS= 0.846E-03 0.000E+00 ENERGY   -10658.615103 DELTAE    4.6511780
 ITERATION   9 PLS= 0.246E-03 0.000E+00 ENERGY   -10658.749019 DELTAE   -0.1339159
 ITERATION  10 PLS= 0.246E-03 0.000E+00 ENERGY   -10660.406096 DELTAE   -1.6570762
 ITERATION  11 PLS= 0.331E-03 0.000E+00 ENERGY   -10659.196035 DELTAE    1.2100602
 ITERATION  12 PLS= 0.173E-03 0.000E+00 ENERGY   -10659.244534 DELTAE   -0.0484986
 ITERATION  13 PLS= 0.164E-03 0.000E+00 ENERGY   -10659.856081 DELTAE   -0.6115470
 ITERATION  14 PLS= 0.256E-03 0.000E+00 ENERGY   -10659.404599 DELTAE    0.4514817
 ITERATION  15 PLS= 0.102E-03 0.000E+00 ENERGY   -10659.422781 DELTAE   -0.0181820
 ITERATION  16 PLS= 0.992E-04 0.000E+00 ENERGY   -10659.549236 DELTAE   -0.1264550
 ITERATION  17 PLS= 0.878E-04 0.000E+00 ENERGY   -10659.467711 DELTAE    0.0815252
 CYCLE:     9 TIME:  14.672 TIME LEFT:  2.00D  GRAD.:   148.228 HEAT: -10659.48
 ITERATION   1 PLS= 0.729E-04 0.000E+00 ENERGY   -10603.190059 DELTAE    0.0000000
 ITERATION   2 PLS= 0.572E-02 0.000E+00 ENERGY   -10619.587069 DELTAE  -16.3970105
 ITERATION   3 PLS= 0.358E-02 0.000E+00 ENERGY   -10627.074819 DELTAE   -7.4877493
 ITERATION   4 PLS= 0.318E-02 0.000E+00 ENERGY   -10678.116532 DELTAE  -51.0417137
 ITERATION   5 PLS= 0.731E-03 0.000E+00 ENERGY   -10641.166394 DELTAE   36.9501383
 ITERATION   6 PLS= 0.112E-02 0.000E+00 ENERGY   -10643.466786 DELTAE   -2.3003915
 ITERATION   7 PLS= 0.101E-02 0.000E+00 ENERGY   -10693.554688 DELTAE  -50.0879026
 ITERATION   8 PLS= 0.905E-03 0.000E+00 ENERGY   -10649.241803 DELTAE   44.3128850
 ITERATION   9 PLS= 0.367E-03 0.000E+00 ENERGY   -10649.821896 DELTAE   -0.5800924
 ITERATION  10 PLS= 0.336E-03 0.000E+00 ENERGY   -10658.396184 DELTAE   -8.5742883
 ITERATION  11 PLS= 0.174E-03 0.000E+00 ENERGY   -10650.685642 DELTAE    7.7105419
 ITERATION  12 PLS= 0.138E-03 0.000E+00 ENERGY   -10650.834226 DELTAE   -0.1485842
 ITERATION  13 PLS= 0.148E-03 0.000E+00 ENERGY   -10651.864845 DELTAE   -1.0306191
 ITERATION  14 PLS= 0.208E-03 0.000E+00 ENERGY   -10651.024116 DELTAE    0.8407294
 ITERATION  15 PLS= 0.104E-03 0.000E+00 ENERGY   -10651.040473 DELTAE   -0.0163569
 ITERATION  16 PLS= 0.101E-03 0.000E+00 ENERGY   -10651.153422 DELTAE   -0.1129497
 ITERATION  17 PLS= 0.762E-04 0.000E+00 ENERGY   -10651.077392 DELTAE    0.0760309
 ITERATION   1 PLS= 0.934E-04 0.000E+00 ENERGY   -10652.721583 DELTAE    0.0000000
 ITERATION   2 PLS= 0.190E-02 0.000E+00 ENERGY   -10656.023542 DELTAE   -3.3019589
 ITERATION   3 PLS= 0.132E-02 0.000E+00 ENERGY   -10657.689532 DELTAE   -1.6659899
 ITERATION   4 PLS= 0.106E-02 0.000E+00 ENERGY   -10668.298120 DELTAE  -10.6085873
 ITERATION   5 PLS= 0.274E-03 0.000E+00 ENERGY   -10660.624179 DELTAE    7.6739407
 ITERATION   6 PLS= 0.351E-03 0.000E+00 ENERGY   -10660.925140 DELTAE   -0.3009607
 ITERATION   7 PLS= 0.321E-03 0.000E+00 ENERGY   -10666.435904 DELTAE   -5.5107648
 ITERATION   8 PLS= 0.405E-03 0.000E+00 ENERGY   -10661.731968 DELTAE    4.7039362
 ITERATION   9 PLS= 0.115E-03 0.000E+00 ENERGY   -10661.794901 DELTAE   -0.0629328
 ITERATION  10 PLS= 0.111E-03 0.000E+00 ENERGY   -10662.827214 DELTAE   -1.0323127
 ITERATION  11 PLS= 0.940E-04 0.000E+00 ENERGY   -10661.932866 DELTAE    0.8943478
 ITERATION  12 PLS= 0.483E-04 0.000E+00 ENERGY   -10661.946754 DELTAE   -0.0138878
 ITERATION  13 PLS= 0.466E-04 0.000E+00 ENERGY   -10662.116957 DELTAE   -0.1702036
 ITERATION  14 PLS= 0.357E-04 0.000E+00 ENERGY   -10661.972697 DELTAE    0.1442600
 ITERATION  15 PLS= 0.224E-04 0.000E+00 ENERGY   -10661.976661 DELTAE   -0.0039634
 ITERATION  16 PLS= 0.226E-04 0.000E+00 ENERGY   -10662.020731 DELTAE   -0.0440702
 ITERATION  17 PLS= 0.228E-04 0.000E+00 ENERGY   -10661.983847 DELTAE    0.0368841
 CYCLE:    10 TIME:  29.465 TIME LEFT:  2.00D  GRAD.:   109.122 HEAT: -10661.98
 ITERATION   1 PLS= 0.148E-04 0.000E+00 ENERGY   -10637.402997 DELTAE    0.0000000
 ITERATION   2 PLS= 0.409E-02 0.000E+00 ENERGY   -10645.118728 DELTAE   -7.7157314
 ITERATION   3 PLS= 0.295E-02 0.000E+00 ENERGY   -10649.263070 DELTAE   -4.1443418
 ITERATION   4 PLS= 0.230E-02 0.000E+00 ENERGY   -10673.478239 DELTAE  -24.2151693
 ITERATION   5 PLS= 0.618E-03 0.000E+00 ENERGY   -10656.483917 DELTAE   16.9943216
 ITERATION   6 PLS= 0.708E-03 0.000E+00 ENERGY   -10657.042604 DELTAE   -0.5586863
 ITERATION   7 PLS= 0.653E-03 0.000E+00 ENERGY   -10668.532450 DELTAE  -11.4898466
 ITERATION   8 PLS= 0.752E-03 0.000E+00 ENERGY   -10658.891679 DELTAE    9.6407711
 ITERATION   9 PLS= 0.231E-03 0.000E+00 ENERGY   -10658.998093 DELTAE   -0.1064139
 ITERATION  10 PLS= 0.227E-03 0.000E+00 ENERGY   -10660.229894 DELTAE   -1.2318010
 ITERATION  11 PLS= 0.210E-03 0.000E+00 ENERGY   -10659.273249 DELTAE    0.9566451
 ITERATION  12 PLS= 0.165E-03 0.000E+00 ENERGY   -10659.294151 DELTAE   -0.0209022
 ITERATION  13 PLS= 0.154E-03 0.000E+00 ENERGY   -10659.442979 DELTAE   -0.1488278
 ITERATION  14 PLS= 0.972E-04 0.000E+00 ENERGY   -10659.350507 DELTAE    0.0924719
 ITERATION  15 PLS= 0.125E-03 0.000E+00 ENERGY   -10659.363541 DELTAE   -0.0130334
 ITERATION  16 PLS= 0.116E-03 0.000E+00 ENERGY   -10659.406984 DELTAE   -0.0434437
 ITERATION   1 PLS= 0.717E-04 0.000E+00 ENERGY   -10660.733060 DELTAE    0.0000000
 ITERATION   2 PLS= 0.238E-02 0.000E+00 ENERGY   -10662.726274 DELTAE   -1.9932141
 ITERATION   3 PLS= 0.166E-02 0.000E+00 ENERGY   -10663.752402 DELTAE   -1.0261274
 ITERATION   4 PLS= 0.127E-02 0.000E+00 ENERGY   -10669.154392 DELTAE   -5.4019901
 ITERATION   5 PLS= 0.312E-03 0.000E+00 ENERGY   -10665.418913 DELTAE    3.7354784
 ITERATION   6 PLS= 0.357E-03 0.000E+00 ENERGY   -10665.565764 DELTAE   -0.1468512
 ITERATION   7 PLS= 0.314E-03 0.000E+00 ENERGY   -10669.087587 DELTAE   -3.5218222
 ITERATION   8 PLS= 0.283E-03 0.000E+00 ENERGY   -10666.001565 DELTAE    3.0860217
 ITERATION   9 PLS= 0.114E-03 0.000E+00 ENERGY   -10666.030921 DELTAE   -0.0293564
 ITERATION  10 PLS= 0.100E-03 0.000E+00 ENERGY   -10666.270451 DELTAE   -0.2395297
 ITERATION  11 PLS= 0.494E-04 0.000E+00 ENERGY   -10666.080385 DELTAE    0.1900662
 ITERATION  12 PLS= 0.322E-04 0.000E+00 ENERGY   -10666.084393 DELTAE   -0.0040086
 ITERATION  13 PLS= 0.310E-04 0.000E+00 ENERGY   -10666.131637 DELTAE   -0.0472434
 CYCLE:    11 TIME:  28.695 TIME LEFT:  2.00D  GRAD.:    83.693 HEAT: -10666.10
 ITERATION   1 PLS= 0.279E-04 0.000E+00 ENERGY   -10653.453493 DELTAE    0.0000000
 ITERATION   2 PLS= 0.355E-02 0.000E+00 ENERGY   -10657.204193 DELTAE   -3.7507008
 ITERATION   3 PLS= 0.248E-02 0.000E+00 ENERGY   -10659.073695 DELTAE   -1.8695013
 ITERATION   4 PLS= 0.190E-02 0.000E+00 ENERGY   -10671.021472 DELTAE  -11.9477777
 ITERATION   5 PLS= 0.448E-03 0.000E+00 ENERGY   -10662.494635 DELTAE    8.5268372
 ITERATION   6 PLS= 0.604E-03 0.000E+00 ENERGY   -10662.875066 DELTAE   -0.3804305
 ITERATION   7 PLS= 0.511E-03 0.000E+00 ENERGY   -10669.461830 DELTAE   -6.5867640
 ITERATION   8 PLS= 0.466E-03 0.000E+00 ENERGY   -10664.034303 DELTAE    5.4275265
 ITERATION   9 PLS= 0.205E-03 0.000E+00 ENERGY   -10664.114591 DELTAE   -0.0802879
 ITERATION  10 PLS= 0.194E-03 0.000E+00 ENERGY   -10665.333346 DELTAE   -1.2187549
 ITERATION  11 PLS= 0.263E-03 0.000E+00 ENERGY   -10664.323554 DELTAE    1.0097924
 ITERATION  12 PLS= 0.120E-03 0.000E+00 ENERGY   -10664.339253 DELTAE   -0.0156993
 ITERATION  13 PLS= 0.124E-03 0.000E+00 ENERGY   -10664.508061 DELTAE   -0.1688082
 ITERATION  14 PLS= 0.183E-03 0.000E+00 ENERGY   -10664.384824 DELTAE    0.1232376
 ITERATION  15 PLS= 0.791E-04 0.000E+00 ENERGY   -10664.390189 DELTAE   -0.0053656
 ITERATION  16 PLS= 0.719E-04 0.000E+00 ENERGY   -10664.438991 DELTAE   -0.0488018
 ITERATION  17 PLS= 0.752E-04 0.000E+00 ENERGY   -10664.406300 DELTAE    0.0326914
 ITERATION   1 PLS= 0.692E-04 0.000E+00 ENERGY   -10664.582967 DELTAE    0.0000000
 ITERATION   2 PLS= 0.103E-02 0.000E+00 ENERGY   -10665.335952 DELTAE   -0.7529851
 ITERATION   3 PLS= 0.757E-03 0.000E+00 ENERGY   -10665.724853 DELTAE   -0.3889007
 ITERATION   4 PLS= 0.587E-03 0.000E+00 ENERGY   -10668.062473 DELTAE   -2.3376203
 ITERATION   5 PLS= 0.169E-03 0.000E+00 ENERGY   -10666.381348 DELTAE    1.6811257
 ITERATION   6 PLS= 0.163E-03 0.000E+00 ENERGY   -10666.429050 DELTAE   -0.0477021
 ITERATION   7 PLS= 0.144E-03 0.000E+00 ENERGY   -10667.189110 DELTAE   -0.7600598
 ITERATION   8 PLS= 0.209E-03 0.000E+00 ENERGY   -10666.572886 DELTAE    0.6162238
 ITERATION   9 PLS= 0.590E-04 0.000E+00 ENERGY   -10666.584981 DELTAE   -0.0120957
 ITERATION  10 PLS= 0.544E-04 0.000E+00 ENERGY   -10666.855084 DELTAE   -0.2701024
 ITERATION  11 PLS= 0.434E-04 0.000E+00 ENERGY   -10666.621785 DELTAE    0.2332989
 ITERATION  12 PLS= 0.274E-04 0.000E+00 ENERGY   -10666.625144 DELTAE   -0.0033594
 ITERATION  13 PLS= 0.256E-04 0.000E+00 ENERGY   -10666.679470 DELTAE   -0.0543259
 ITERATION  14 PLS= 0.206E-04 0.000E+00 ENERGY   -10666.631980 DELTAE    0.0474907
 ITERATION  15 PLS= 0.119E-04 0.000E+00 ENERGY   -10666.632800 DELTAE   -0.0008202
 ITERATION  16 PLS= 0.112E-04 0.000E+00 ENERGY   -10666.640776 DELTAE   -0.0079759
 ITERATION  17 PLS= 0.782E-05 0.000E+00 ENERGY   -10666.634131 DELTAE    0.0066448
 CYCLE:    12 TIME:  29.332 TIME LEFT:  2.00D  GRAD.:    51.797 HEAT: -10666.63
 ITERATION   1 PLS= 0.826E-05 0.000E+00 ENERGY   -10666.309931 DELTAE    0.0000000
 ITERATION   2 PLS= 0.106E-02 0.000E+00 ENERGY   -10666.729403 DELTAE   -0.4194722
 ITERATION   3 PLS= 0.782E-03 0.000E+00 ENERGY   -10666.954422 DELTAE   -0.2250184
 ITERATION   4 PLS= 0.609E-03 0.000E+00 ENERGY   -10668.421578 DELTAE   -1.4671565
 ITERATION   5 PLS= 0.125E-03 0.000E+00 ENERGY   -10667.360153 DELTAE    1.0614255
 ITERATION   6 PLS= 0.141E-03 0.000E+00 ENERGY   -10667.386966 DELTAE   -0.0268133
 ITERATION   7 PLS= 0.121E-03 0.000E+00 ENERGY   -10667.839152 DELTAE   -0.4521856
 ITERATION   8 PLS= 0.160E-03 0.000E+00 ENERGY   -10667.476585 DELTAE    0.3625668
 ITERATION   9 PLS= 0.538E-04 0.000E+00 ENERGY   -10667.482490 DELTAE   -0.0059057
 ITERATION  10 PLS= 0.526E-04 0.000E+00 ENERGY   -10667.578653 DELTAE   -0.0961622
 ITERATION  11 PLS= 0.425E-04 0.000E+00 ENERGY   -10667.500747 DELTAE    0.0779057
 ITERATION  12 PLS= 0.330E-04 0.000E+00 ENERGY   -10667.502472 DELTAE   -0.0017247
 ITERATION  13 PLS= 0.322E-04 0.000E+00 ENERGY   -10667.510142 DELTAE   -0.0076701
 ITERATION  14 PLS= 0.240E-04 0.000E+00 ENERGY   -10667.505505 DELTAE    0.0046371
 CYCLE:    13 TIME:  14.164 TIME LEFT:  2.00D  GRAD.:    38.061 HEAT: -10667.51
 ITERATION   1 PLS= 0.233E-04 0.000E+00 ENERGY   -10664.914919 DELTAE    0.0000000
 ITERATION   2 PLS= 0.194E-02 0.000E+00 ENERGY   -10665.891075 DELTAE   -0.9761562
 ITERATION   3 PLS= 0.143E-02 0.000E+00 ENERGY   -10666.413090 DELTAE   -0.5220145
 ITERATION   4 PLS= 0.111E-02 0.000E+00 ENERGY   -10669.707675 DELTAE   -3.2945852
 ITERATION   5 PLS= 0.309E-03 0.000E+00 ENERGY   -10667.342621 DELTAE    2.3650538
 ITERATION   6 PLS= 0.284E-03 0.000E+00 ENERGY   -10667.413893 DELTAE   -0.0712718
 ITERATION   7 PLS= 0.250E-03 0.000E+00 ENERGY   -10668.681229 DELTAE   -1.2673357
 ITERATION   8 PLS= 0.275E-03 0.000E+00 ENERGY   -10667.639389 DELTAE    1.0418394
 ITERATION   9 PLS= 0.864E-04 0.000E+00 ENERGY   -10667.653169 DELTAE   -0.0137798
 ITERATION  10 PLS= 0.814E-04 0.000E+00 ENERGY   -10667.842518 DELTAE   -0.1893492
 ITERATION  11 PLS= 0.831E-04 0.000E+00 ENERGY   -10667.691185 DELTAE    0.1513339
 ITERATION  12 PLS= 0.645E-04 0.000E+00 ENERGY   -10667.694427 DELTAE   -0.0032427
 ITERATION  13 PLS= 0.603E-04 0.000E+00 ENERGY   -10667.736415 DELTAE   -0.0419874
 ITERATION  14 PLS= 0.372E-04 0.000E+00 ENERGY   -10667.704189 DELTAE    0.0322252
 ITERATION  15 PLS= 0.350E-04 0.000E+00 ENERGY   -10667.705808 DELTAE   -0.0016182
 ITERATION  16 PLS= 0.351E-04 0.000E+00 ENERGY   -10667.710776 DELTAE   -0.0049681
 ITERATION  17 PLS= 0.265E-04 0.000E+00 ENERGY   -10667.708183 DELTAE    0.0025932
 CYCLE:    14 TIME:  14.590 TIME LEFT:  2.00D  GRAD.:    74.471 HEAT: -10667.71
 ITERATION   1 PLS= 0.278E-04 0.000E+00 ENERGY   -10666.738801 DELTAE    0.0000000
 ITERATION   2 PLS= 0.132E-02 0.000E+00 ENERGY   -10667.458552 DELTAE   -0.7197510
 ITERATION   3 PLS= 0.889E-03 0.000E+00 ENERGY   -10667.793402 DELTAE   -0.3348497
 ITERATION   4 PLS= 0.709E-03 0.000E+00 ENERGY   -10669.948677 DELTAE   -2.1552750
 ITERATION   5 PLS= 0.169E-03 0.000E+00 ENERGY   -10668.389444 DELTAE    1.5592323
 ITERATION   6 PLS= 0.245E-03 0.000E+00 ENERGY   -10668.484323 DELTAE   -0.0948788
 ITERATION   7 PLS= 0.216E-03 0.000E+00 ENERGY   -10670.473557 DELTAE   -1.9892344
 ITERATION   8 PLS= 0.172E-03 0.000E+00 ENERGY   -10668.709544 DELTAE    1.7640140
 ITERATION   9 PLS= 0.809E-04 0.000E+00 ENERGY   -10668.731023 DELTAE   -0.0214796
 ITERATION  10 PLS= 0.725E-04 0.000E+00 ENERGY   -10668.950453 DELTAE   -0.2194295
 ITERATION  11 PLS= 0.402E-04 0.000E+00 ENERGY   -10668.759748 DELTAE    0.1907045
 ITERATION  12 PLS= 0.298E-04 0.000E+00 ENERGY   -10668.763606 DELTAE   -0.0038583
 ITERATION  13 PLS= 0.297E-04 0.000E+00 ENERGY   -10668.786438 DELTAE   -0.0228315
 ITERATION  14 PLS= 0.245E-04 0.000E+00 ENERGY   -10668.769164 DELTAE    0.0172736
 CYCLE:    15 TIME:  14.340 TIME LEFT:  2.00D  GRAD.:    50.057 HEAT: -10668.77
 ITERATION   1 PLS= 0.244E-04 0.000E+00 ENERGY   -10661.236012 DELTAE    0.0000000
 ITERATION   2 PLS= 0.259E-02 0.000E+00 ENERGY   -10663.280226 DELTAE   -2.0442134
 ITERATION   3 PLS= 0.186E-02 0.000E+00 ENERGY   -10664.177450 DELTAE   -0.8972240
 ITERATION   4 PLS= 0.135E-02 0.000E+00 ENERGY   -10670.767113 DELTAE   -6.5896635
 ITERATION   5 PLS= 0.418E-03 0.000E+00 ENERGY   -10665.869696 DELTAE    4.8974169
 ITERATION   6 PLS= 0.530E-03 0.000E+00 ENERGY   -10666.183989 DELTAE   -0.3142925
 ITERATION   7 PLS= 0.472E-03 0.000E+00 ENERGY   -10673.716550 DELTAE   -7.5325612
 ITERATION   8 PLS= 0.353E-03 0.000E+00 ENERGY   -10666.886521 DELTAE    6.8300293
 ITERATION   9 PLS= 0.158E-03 0.000E+00 ENERGY   -10666.977860 DELTAE   -0.0913394
 ITERATION  10 PLS= 0.148E-03 0.000E+00 ENERGY   -10667.899007 DELTAE   -0.9211471
 ITERATION  11 PLS= 0.950E-04 0.000E+00 ENERGY   -10667.084517 DELTAE    0.8144897
 ITERATION  12 PLS= 0.607E-04 0.000E+00 ENERGY   -10667.100223 DELTAE   -0.0157060
 ITERATION  13 PLS= 0.581E-04 0.000E+00 ENERGY   -10667.180638 DELTAE   -0.0804151
 ITERATION  14 PLS= 0.466E-04 0.000E+00 ENERGY   -10667.118830 DELTAE    0.0618088
 ITERATION  15 PLS= 0.505E-04 0.000E+00 ENERGY   -10667.121637 DELTAE   -0.0028073
 ITERATION   1 PLS= 0.478E-04 0.000E+00 ENERGY   -10667.705789 DELTAE    0.0000000
 ITERATION   2 PLS= 0.125E-02 0.000E+00 ENERGY   -10668.083298 DELTAE   -0.3775098
 ITERATION   3 PLS= 0.813E-03 0.000E+00 ENERGY   -10668.253281 DELTAE   -0.1699823
 ITERATION   4 PLS= 0.657E-03 0.000E+00 ENERGY   -10669.378045 DELTAE   -1.1247646
 ITERATION   5 PLS= 0.154E-03 0.000E+00 ENERGY   -10668.551861 DELTAE    0.8261842
 ITERATION   6 PLS= 0.206E-03 0.000E+00 ENERGY   -10668.604568 DELTAE   -0.0527072
 ITERATION   7 PLS= 0.187E-03 0.000E+00 ENERGY   -10669.720281 DELTAE   -1.1157127
 ITERATION   8 PLS= 0.881E-04 0.000E+00 ENERGY   -10668.715091 DELTAE    1.0051899
 ITERATION   9 PLS= 0.667E-04 0.000E+00 ENERGY   -10668.728575 DELTAE   -0.0134840
 ITERATION  10 PLS= 0.555E-04 0.000E+00 ENERGY   -10668.835840 DELTAE   -0.1072648
 ITERATION  11 PLS= 0.191E-04 0.000E+00 ENERGY   -10668.744052 DELTAE    0.0917878
 ITERATION  12 PLS= 0.168E-04 0.000E+00 ENERGY   -10668.745683 DELTAE   -0.0016310
 ITERATION  13 PLS= 0.154E-04 0.000E+00 ENERGY   -10668.759331 DELTAE   -0.0136477
 ITERATION  14 PLS= 0.165E-04 0.000E+00 ENERGY   -10668.748016 DELTAE    0.0113148
 ITERATION  15 PLS= 0.159E-04 0.000E+00 ENERGY   -10668.748377 DELTAE   -0.0003610
 ITERATION  16 PLS= 0.154E-04 0.000E+00 ENERGY   -10668.751834 DELTAE   -0.0034573
 ITERATION  17 PLS= 0.731E-05 0.000E+00 ENERGY   -10668.749062 DELTAE    0.0027727
 ITERATION  18 PLS= 0.101E-04 0.000E+00 ENERGY   -10668.749204 DELTAE   -0.0001425
 ITERATION   1 PLS= 0.968E-05 0.000E+00 ENERGY   -10668.624626 DELTAE    0.0000000
 ITERATION   2 PLS= 0.676E-03 0.000E+00 ENERGY   -10668.785093 DELTAE   -0.1604670
 ITERATION   3 PLS= 0.523E-03 0.000E+00 ENERGY   -10668.848246 DELTAE   -0.0631536
 ITERATION   4 PLS= 0.361E-03 0.000E+00 ENERGY   -10669.317700 DELTAE   -0.4694535
 ITERATION   5 PLS= 0.983E-04 0.000E+00 ENERGY   -10668.970457 DELTAE    0.3472425
 ITERATION   6 PLS= 0.158E-03 0.000E+00 ENERGY   -10669.001961 DELTAE   -0.0315040
 ITERATION   7 PLS= 0.143E-03 0.000E+00 ENERGY   -10669.616689 DELTAE   -0.6147279
 ITERATION   8 PLS= 0.780E-04 0.000E+00 ENERGY   -10669.069684 DELTAE    0.5470049
 ITERATION   9 PLS= 0.579E-04 0.000E+00 ENERGY   -10669.077777 DELTAE   -0.0080923
 ITERATION  10 PLS= 0.502E-04 0.000E+00 ENERGY   -10669.152788 DELTAE   -0.0750118
 ITERATION  11 PLS= 0.187E-04 0.000E+00 ENERGY   -10669.088391 DELTAE    0.0643978
 ITERATION  12 PLS= 0.267E-04 0.000E+00 ENERGY   -10669.089687 DELTAE   -0.0012966
 ITERATION  13 PLS= 0.174E-04 0.000E+00 ENERGY   -10669.094671 DELTAE   -0.0049833
 ITERATION  14 PLS= 0.219E-04 0.000E+00 ENERGY   -10669.091293 DELTAE    0.0033773
 CYCLE:    16 TIME:  43.383 TIME LEFT:  2.00D  GRAD.:    32.025 HEAT: -10669.09
 ITERATION   1 PLS= 0.160E-04 0.000E+00 ENERGY   -10669.441671 DELTAE    0.0000000
 ITERATION   2 PLS= 0.361E-03 0.000E+00 ENERGY   -10669.513697 DELTAE   -0.0720257
 ITERATION   3 PLS= 0.266E-03 0.000E+00 ENERGY   -10669.552578 DELTAE   -0.0388806
 ITERATION   4 PLS= 0.212E-03 0.000E+00 ENERGY   -10669.823810 DELTAE   -0.2712319
 ITERATION   5 PLS= 0.564E-04 0.000E+00 ENERGY   -10669.624452 DELTAE    0.1993571
 ITERATION   6 PLS= 0.539E-04 0.000E+00 ENERGY   -10669.629150 DELTAE   -0.0046975
 ITERATION   7 PLS= 0.503E-04 0.000E+00 ENERGY   -10669.708558 DELTAE   -0.0794083
 ITERATION   8 PLS= 0.385E-04 0.000E+00 ENERGY   -10669.643988 DELTAE    0.0645704
 ITERATION   9 PLS= 0.296E-04 0.000E+00 ENERGY   -10669.644866 DELTAE   -0.0008779
 ITERATION  10 PLS= 0.285E-04 0.000E+00 ENERGY   -10669.650119 DELTAE   -0.0052535
 ITERATION  11 PLS= 0.206E-04 0.000E+00 ENERGY   -10669.646711 DELTAE    0.0034086
 CYCLE:    17 TIME:  13.816 TIME LEFT:  2.00D  GRAD.:    16.160 HEAT: -10669.65
 ITERATION   1 PLS= 0.227E-04 0.000E+00 ENERGY   -10669.743964 DELTAE    0.0000000
 ITERATION   2 PLS= 0.516E-03 0.000E+00 ENERGY   -10669.854140 DELTAE   -0.1101762
 ITERATION   3 PLS= 0.372E-03 0.000E+00 ENERGY   -10669.910846 DELTAE   -0.0567062
 ITERATION   4 PLS= 0.294E-03 0.000E+00 ENERGY   -10670.276430 DELTAE   -0.3655833
 ITERATION   5 PLS= 0.977E-04 0.000E+00 ENERGY   -10670.014634 DELTAE    0.2617962
 ITERATION   6 PLS= 0.122E-03 0.000E+00 ENERGY   -10670.024908 DELTAE   -0.0102744
 ITERATION   7 PLS= 0.111E-03 0.000E+00 ENERGY   -10670.206652 DELTAE   -0.1817441
 ITERATION   8 PLS= 0.639E-04 0.000E+00 ENERGY   -10670.054122 DELTAE    0.1525301
 ITERATION   9 PLS= 0.324E-04 0.000E+00 ENERGY   -10670.056229 DELTAE   -0.0021074
 ITERATION  10 PLS= 0.274E-04 0.000E+00 ENERGY   -10670.082409 DELTAE   -0.0261791
 ITERATION  11 PLS= 0.191E-04 0.000E+00 ENERGY   -10670.060776 DELTAE    0.0216323
 ITERATION  12 PLS= 0.146E-04 0.000E+00 ENERGY   -10670.061283 DELTAE   -0.0005063
 ITERATION  13 PLS= 0.143E-04 0.000E+00 ENERGY   -10670.063444 DELTAE   -0.0021612
 ITERATION  14 PLS= 0.137E-04 0.000E+00 ENERGY   -10670.062114 DELTAE    0.0013299
 CYCLE:    18 TIME:  14.203 TIME LEFT:  2.00D  GRAD.:    23.509 HEAT: -10670.06
 ITERATION   1 PLS= 0.106E-04 0.000E+00 ENERGY   -10670.211590 DELTAE    0.0000000
 ITERATION   2 PLS= 0.744E-03 0.000E+00 ENERGY   -10670.372713 DELTAE   -0.1611236
 ITERATION   3 PLS= 0.560E-03 0.000E+00 ENERGY   -10670.450334 DELTAE   -0.0776206
 ITERATION   4 PLS= 0.387E-03 0.000E+00 ENERGY   -10670.934960 DELTAE   -0.4846264
 ITERATION   5 PLS= 0.105E-03 0.000E+00 ENERGY   -10670.594148 DELTAE    0.3408126
 ITERATION   6 PLS= 0.151E-03 0.000E+00 ENERGY   -10670.613625 DELTAE   -0.0194769
 ITERATION   7 PLS= 0.139E-03 0.000E+00 ENERGY   -10670.969874 DELTAE   -0.3562497
 ITERATION   8 PLS= 0.801E-04 0.000E+00 ENERGY   -10670.663836 DELTAE    0.3060387
 ITERATION   9 PLS= 0.404E-04 0.000E+00 ENERGY   -10670.667870 DELTAE   -0.0040345
 ITERATION  10 PLS= 0.352E-04 0.000E+00 ENERGY   -10670.705450 DELTAE   -0.0375799
 ITERATION  11 PLS= 0.170E-04 0.000E+00 ENERGY   -10670.674491 DELTAE    0.0309587
 ITERATION  12 PLS= 0.211E-04 0.000E+00 ENERGY   -10670.675639 DELTAE   -0.0011475
 ITERATION  13 PLS= 0.180E-04 0.000E+00 ENERGY   -10670.682835 DELTAE   -0.0071957
 ITERATION  14 PLS= 0.154E-04 0.000E+00 ENERGY   -10670.677489 DELTAE    0.0053460
 CYCLE:    19 TIME:  14.207 TIME LEFT:  2.00D  GRAD.:    24.391 HEAT: -10670.68
 ITERATION   1 PLS= 0.153E-04 0.000E+00 ENERGY   -10670.727839 DELTAE    0.0000000
 ITERATION   2 PLS= 0.120E-02 0.000E+00 ENERGY   -10671.063341 DELTAE   -0.3355021
 ITERATION   3 PLS= 0.830E-03 0.000E+00 ENERGY   -10671.234912 DELTAE   -0.1715710
 ITERATION   4 PLS= 0.649E-03 0.000E+00 ENERGY   -10672.389898 DELTAE   -1.1549860
 ITERATION   5 PLS= 0.123E-03 0.000E+00 ENERGY   -10671.541737 DELTAE    0.8481607
 ITERATION   6 PLS= 0.157E-03 0.000E+00 ENERGY   -10671.572282 DELTAE   -0.0305452
 ITERATION   7 PLS= 0.142E-03 0.000E+00 ENERGY   -10672.196459 DELTAE   -0.6241766
 ITERATION   8 PLS= 0.701E-04 0.000E+00 ENERGY   -10671.655597 DELTAE    0.5408621
 ITERATION   9 PLS= 0.505E-04 0.000E+00 ENERGY   -10671.661992 DELTAE   -0.0063950
 ITERATION  10 PLS= 0.464E-04 0.000E+00 ENERGY   -10671.716761 DELTAE   -0.0547698
 ITERATION  11 PLS= 0.216E-04 0.000E+00 ENERGY   -10671.672304 DELTAE    0.0444577
 ITERATION  12 PLS= 0.295E-04 0.000E+00 ENERGY   -10671.673453 DELTAE   -0.0011492
 ITERATION  13 PLS= 0.268E-04 0.000E+00 ENERGY   -10671.678554 DELTAE   -0.0051010
 CYCLE:    20 TIME:  14.164 TIME LEFT:  2.00D  GRAD.:    30.957 HEAT: -10671.68
 ITERATION   1 PLS= 0.198E-04 0.000E+00 ENERGY   -10670.193104 DELTAE    0.0000000
 ITERATION   2 PLS= 0.184E-02 0.000E+00 ENERGY   -10670.874101 DELTAE   -0.6809972
 ITERATION   3 PLS= 0.140E-02 0.000E+00 ENERGY   -10671.171784 DELTAE   -0.2976828
 ITERATION   4 PLS= 0.997E-03 0.000E+00 ENERGY   -10672.934042 DELTAE   -1.7622574
 ITERATION   5 PLS= 0.238E-03 0.000E+00 ENERGY   -10671.715838 DELTAE    1.2182034
 ITERATION   6 PLS= 0.369E-03 0.000E+00 ENERGY   -10671.819681 DELTAE   -0.1038423
 ITERATION   7 PLS= 0.333E-03 0.000E+00 ENERGY   -10674.118509 DELTAE   -2.2988283
 ITERATION   8 PLS= 0.275E-03 0.000E+00 ENERGY   -10672.072595 DELTAE    2.0459144
 ITERATION   9 PLS= 0.140E-03 0.000E+00 ENERGY   -10672.097050 DELTAE   -0.0244551
 ITERATION  10 PLS= 0.123E-03 0.000E+00 ENERGY   -10672.329771 DELTAE   -0.2327213
 ITERATION  11 PLS= 0.425E-04 0.000E+00 ENERGY   -10672.130131 DELTAE    0.1996395
 ITERATION  12 PLS= 0.299E-04 0.000E+00 ENERGY   -10672.133876 DELTAE   -0.0037449
 ITERATION  13 PLS= 0.269E-04 0.000E+00 ENERGY   -10672.155677 DELTAE   -0.0218013
 ITERATION  14 PLS= 0.277E-04 0.000E+00 ENERGY   -10672.139651 DELTAE    0.0160264
 CYCLE:    21 TIME:  14.363 TIME LEFT:  2.00D  GRAD.:    43.487 HEAT: -10672.14
 ITERATION   1 PLS= 0.235E-04 0.000E+00 ENERGY   -10670.034179 DELTAE    0.0000000
 ITERATION   2 PLS= 0.260E-02 0.000E+00 ENERGY   -10671.005607 DELTAE   -0.9714278
 ITERATION   3 PLS= 0.203E-02 0.000E+00 ENERGY   -10671.388164 DELTAE   -0.3825569
 ITERATION   4 PLS= 0.143E-02 0.000E+00 ENERGY   -10674.089022 DELTAE   -2.7008588
 ITERATION   5 PLS= 0.286E-03 0.000E+00 ENERGY   -10672.095619 DELTAE    1.9934031
 ITERATION   6 PLS= 0.567E-03 0.000E+00 ENERGY   -10672.282508 DELTAE   -0.1868892
 ITERATION   7 PLS= 0.510E-03 0.000E+00 ENERGY   -10675.719643 DELTAE   -3.4371349
 ITERATION   8 PLS= 0.340E-03 0.000E+00 ENERGY   -10672.681335 DELTAE    3.0383078
 ITERATION   9 PLS= 0.191E-03 0.000E+00 ENERGY   -10672.722014 DELTAE   -0.0406786
 ITERATION  10 PLS= 0.175E-03 0.000E+00 ENERGY   -10673.120295 DELTAE   -0.3982812
 ITERATION  11 PLS= 0.593E-04 0.000E+00 ENERGY   -10672.777714 DELTAE    0.3425817
 ITERATION  12 PLS= 0.571E-04 0.000E+00 ENERGY   -10672.784449 DELTAE   -0.0067353
 ITERATION  13 PLS= 0.472E-04 0.000E+00 ENERGY   -10672.831344 DELTAE   -0.0468948
 ITERATION  14 PLS= 0.346E-04 0.000E+00 ENERGY   -10672.794705 DELTAE    0.0366388
 ITERATION  15 PLS= 0.338E-04 0.000E+00 ENERGY   -10672.796010 DELTAE   -0.0013049
 ITERATION  16 PLS= 0.254E-04 0.000E+00 ENERGY   -10672.801781 DELTAE   -0.0057706
 ITERATION  17 PLS= 0.307E-04 0.000E+00 ENERGY   -10672.798427 DELTAE    0.0033532
 CYCLE:    22 TIME:  14.684 TIME LEFT:  1.99D  GRAD.:    52.038 HEAT: -10672.80
 ITERATION   1 PLS= 0.259E-04 0.000E+00 ENERGY   -10664.274573 DELTAE    0.0000000
 ITERATION   2 PLS= 0.225E-02 0.000E+00 ENERGY   -10666.880240 DELTAE   -2.6056669
 ITERATION   3 PLS= 0.184E-02 0.000E+00 ENERGY   -10668.088310 DELTAE   -1.2080709
 ITERATION   4 PLS= 0.130E-02 0.000E+00 ENERGY   -10674.670843 DELTAE   -6.5825328
 ITERATION   5 PLS= 0.412E-03 0.000E+00 ENERGY   -10670.217556 DELTAE    4.4532874
 ITERATION   6 PLS= 0.544E-03 0.000E+00 ENERGY   -10670.559907 DELTAE   -0.3423509
 ITERATION   7 PLS= 0.488E-03 0.000E+00 ENERGY   -10678.221954 DELTAE   -7.6620471
 ITERATION   8 PLS= 0.608E-03 0.000E+00 ENERGY   -10671.465237 DELTAE    6.7567166
 ITERATION   9 PLS= 0.165E-03 0.000E+00 ENERGY   -10671.549238 DELTAE   -0.0840007
 ITERATION  10 PLS= 0.147E-03 0.000E+00 ENERGY   -10672.582173 DELTAE   -1.0329349
 ITERATION  11 PLS= 0.115E-03 0.000E+00 ENERGY   -10671.699410 DELTAE    0.8827626
 ITERATION  12 PLS= 0.608E-04 0.000E+00 ENERGY   -10671.713385 DELTAE   -0.0139744
 ITERATION  13 PLS= 0.589E-04 0.000E+00 ENERGY   -10671.786070 DELTAE   -0.0726858
 ITERATION  14 PLS= 0.644E-04 0.000E+00 ENERGY   -10671.735482 DELTAE    0.0505886
 ITERATION  15 PLS= 0.506E-04 0.000E+00 ENERGY   -10671.740042 DELTAE   -0.0045604
 ITERATION  16 PLS= 0.512E-04 0.000E+00 ENERGY   -10671.754649 DELTAE   -0.0146073
 ITERATION   1 PLS= 0.476E-04 0.000E+00 ENERGY   -10671.932418 DELTAE    0.0000000
 ITERATION   2 PLS= 0.725E-03 0.000E+00 ENERGY   -10672.431607 DELTAE   -0.4991885
 ITERATION   3 PLS= 0.551E-03 0.000E+00 ENERGY   -10672.688164 DELTAE   -0.2565577
 ITERATION   4 PLS= 0.386E-03 0.000E+00 ENERGY   -10673.947082 DELTAE   -1.2589176
 ITERATION   5 PLS= 0.166E-03 0.000E+00 ENERGY   -10673.108967 DELTAE    0.8381151
 ITERATION   6 PLS= 0.157E-03 0.000E+00 ENERGY   -10673.146415 DELTAE   -0.0374484
 ITERATION   7 PLS= 0.147E-03 0.000E+00 ENERGY   -10673.593796 DELTAE   -0.4473813
 ITERATION   8 PLS= 0.149E-03 0.000E+00 ENERGY   -10673.245130 DELTAE    0.3486663
 ITERATION   9 PLS= 0.795E-04 0.000E+00 ENERGY   -10673.260924 DELTAE   -0.0157938
 ITERATION  10 PLS= 0.675E-04 0.000E+00 ENERGY   -10673.428892 DELTAE   -0.1679684
 ITERATION  11 PLS= 0.106E-03 0.000E+00 ENERGY   -10673.296261 DELTAE    0.1326317
 ITERATION  12 PLS= 0.346E-04 0.000E+00 ENERGY   -10673.300501 DELTAE   -0.0042403
 ITERATION  13 PLS= 0.307E-04 0.000E+00 ENERGY   -10673.346903 DELTAE   -0.0464019
 ITERATION  14 PLS= 0.304E-04 0.000E+00 ENERGY   -10673.310103 DELTAE    0.0368000
 ITERATION  15 PLS= 0.210E-04 0.000E+00 ENERGY   -10673.311273 DELTAE   -0.0011696
 ITERATION  16 PLS= 0.193E-04 0.000E+00 ENERGY   -10673.325534 DELTAE   -0.0142618
 ITERATION  17 PLS= 0.141E-04 0.000E+00 ENERGY   -10673.314019 DELTAE    0.0115159
 CYCLE:    23 TIME:  29.020 TIME LEFT:  1.99D  GRAD.:    50.238 HEAT: -10673.31
 ITERATION   1 PLS= 0.173E-04 0.000E+00 ENERGY   -10670.747633 DELTAE    0.0000000
 ITERATION   2 PLS= 0.144E-02 0.000E+00 ENERGY   -10671.770918 DELTAE   -1.0232853
 ITERATION   3 PLS= 0.104E-02 0.000E+00 ENERGY   -10672.309557 DELTAE   -0.5386382
 ITERATION   4 PLS= 0.794E-03 0.000E+00 ENERGY   -10675.385407 DELTAE   -3.0758501
 ITERATION   5 PLS= 0.286E-03 0.000E+00 ENERGY   -10673.264184 DELTAE    2.1212226
 ITERATION   6 PLS= 0.368E-03 0.000E+00 ENERGY   -10673.341339 DELTAE   -0.0771551
 ITERATION   7 PLS= 0.278E-03 0.000E+00 ENERGY   -10674.646594 DELTAE   -1.3052544
 ITERATION   8 PLS= 0.355E-03 0.000E+00 ENERGY   -10673.597980 DELTAE    1.0486136
 ITERATION   9 PLS= 0.886E-04 0.000E+00 ENERGY   -10673.613648 DELTAE   -0.0156679
 ITERATION  10 PLS= 0.941E-04 0.000E+00 ENERGY   -10673.776826 DELTAE   -0.1631782
 ITERATION  11 PLS= 0.111E-03 0.000E+00 ENERGY   -10673.658754 DELTAE    0.1180717
 ITERATION  12 PLS= 0.479E-04 0.000E+00 ENERGY   -10673.662871 DELTAE   -0.0041170
 ITERATION  13 PLS= 0.441E-04 0.000E+00 ENERGY   -10673.695114 DELTAE   -0.0322423
 ITERATION  14 PLS= 0.423E-04 0.000E+00 ENERGY   -10673.674846 DELTAE    0.0202677
 ITERATION  15 PLS= 0.387E-04 0.000E+00 ENERGY   -10673.677781 DELTAE   -0.0029353
 ITERATION  16 PLS= 0.375E-04 0.000E+00 ENERGY   -10673.686347 DELTAE   -0.0085658
 ITERATION  17 PLS= 0.351E-04 0.000E+00 ENERGY   -10673.682376 DELTAE    0.0039710
 CYCLE:    24 TIME:  14.461 TIME LEFT:  1.99D  GRAD.:    45.644 HEAT: -10673.68
 ITERATION   1 PLS= 0.318E-04 0.000E+00 ENERGY   -10672.065498 DELTAE    0.0000000
 ITERATION   2 PLS= 0.126E-02 0.000E+00 ENERGY   -10672.825301 DELTAE   -0.7598029
 ITERATION   3 PLS= 0.901E-03 0.000E+00 ENERGY   -10673.200086 DELTAE   -0.3747847
 ITERATION   4 PLS= 0.678E-03 0.000E+00 ENERGY   -10675.447100 DELTAE   -2.2470136
 ITERATION   5 PLS= 0.165E-03 0.000E+00 ENERGY   -10673.851955 DELTAE    1.5951447
 ITERATION   6 PLS= 0.226E-03 0.000E+00 ENERGY   -10673.926632 DELTAE   -0.0746768
 ITERATION   7 PLS= 0.200E-03 0.000E+00 ENERGY   -10675.566287 DELTAE   -1.6396552
 ITERATION   8 PLS= 0.214E-03 0.000E+00 ENERGY   -10674.134013 DELTAE    1.4322739
 ITERATION   9 PLS= 0.589E-04 0.000E+00 ENERGY   -10674.150577 DELTAE   -0.0165646
 ITERATION  10 PLS= 0.575E-04 0.000E+00 ENERGY   -10674.376248 DELTAE   -0.2256708
 ITERATION  11 PLS= 0.488E-04 0.000E+00 ENERGY   -10674.181709 DELTAE    0.1945395
 ITERATION  12 PLS= 0.343E-04 0.000E+00 ENERGY   -10674.185023 DELTAE   -0.0033145
 ITERATION  13 PLS= 0.332E-04 0.000E+00 ENERGY   -10674.203784 DELTAE   -0.0187609
 ITERATION  14 PLS= 0.238E-04 0.000E+00 ENERGY   -10674.190208 DELTAE    0.0135763
 CYCLE:    25 TIME:  14.359 TIME LEFT:  1.99D  GRAD.:    38.558 HEAT: -10674.19
 ITERATION   1 PLS= 0.264E-04 0.000E+00 ENERGY   -10671.457407 DELTAE    0.0000000
 ITERATION   2 PLS= 0.144E-02 0.000E+00 ENERGY   -10672.327251 DELTAE   -0.8698439
 ITERATION   3 PLS= 0.109E-02 0.000E+00 ENERGY   -10672.751037 DELTAE   -0.4237858
 ITERATION   4 PLS= 0.785E-03 0.000E+00 ENERGY   -10675.384704 DELTAE   -2.6336671
 ITERATION   5 PLS= 0.231E-03 0.000E+00 ENERGY   -10673.508777 DELTAE    1.8759270
 ITERATION   6 PLS= 0.325E-03 0.000E+00 ENERGY   -10673.610885 DELTAE   -0.1021078
 ITERATION   7 PLS= 0.291E-03 0.000E+00 ENERGY   -10676.004859 DELTAE   -2.3939740
 ITERATION   8 PLS= 0.375E-03 0.000E+00 ENERGY   -10673.870422 DELTAE    2.1344371
 ITERATION   9 PLS= 0.849E-04 0.000E+00 ENERGY   -10673.895488 DELTAE   -0.0250663
 ITERATION  10 PLS= 0.741E-04 0.000E+00 ENERGY   -10674.198249 DELTAE   -0.3027611
 ITERATION  11 PLS= 0.730E-04 0.000E+00 ENERGY   -10673.935013 DELTAE    0.2632363
 ITERATION  12 PLS= 0.287E-04 0.000E+00 ENERGY   -10673.939490 DELTAE   -0.0044776
 ITERATION  13 PLS= 0.300E-04 0.000E+00 ENERGY   -10673.958582 DELTAE   -0.0190911
 ITERATION  14 PLS= 0.315E-04 0.000E+00 ENERGY   -10673.945558 DELTAE    0.0130232
 ITERATION  15 PLS= 0.270E-04 0.000E+00 ENERGY   -10673.946822 DELTAE   -0.0012631
 ITERATION  16 PLS= 0.273E-04 0.000E+00 ENERGY   -10673.950279 DELTAE   -0.0034577
 ITERATION  17 PLS= 0.178E-04 0.000E+00 ENERGY   -10673.948606 DELTAE    0.0016735
 ITERATION  18 PLS= 0.242E-04 0.000E+00 ENERGY   -10673.949514 DELTAE   -0.0009081
 ITERATION   1 PLS= 0.220E-04 0.000E+00 ENERGY   -10674.045889 DELTAE    0.0000000
 ITERATION   2 PLS= 0.763E-03 0.000E+00 ENERGY   -10674.263038 DELTAE   -0.2171488
 ITERATION   3 PLS= 0.599E-03 0.000E+00 ENERGY   -10674.354535 DELTAE   -0.0914975
 ITERATION   4 PLS= 0.421E-03 0.000E+00 ENERGY   -10674.925139 DELTAE   -0.5706039
 ITERATION   5 PLS= 0.896E-04 0.000E+00 ENERGY   -10674.514616 DELTAE    0.4105237
 ITERATION   6 PLS= 0.186E-03 0.000E+00 ENERGY   -10674.550174 DELTAE   -0.0355581
 ITERATION   7 PLS= 0.170E-03 0.000E+00 ENERGY   -10675.082323 DELTAE   -0.5321497
 ITERATION   8 PLS= 0.979E-04 0.000E+00 ENERGY   -10674.626194 DELTAE    0.4561289
 ITERATION   9 PLS= 0.457E-04 0.000E+00 ENERGY   -10674.633592 DELTAE   -0.0073979
[...]
   32         Si           0.886718        3.1133     0.60949     2.01237     0.49142
   33         Si           0.887351        3.1126     0.60938     2.01203     0.49123
   34         Si           0.886741        3.1133     0.60949     2.01233     0.49145
   35         Si           0.885443        3.1146     0.60926     2.01312     0.49217
   36         Si           0.886639        3.1134     0.60945     2.01236     0.49155
   37         Si           0.887211        3.1128     0.60942     2.01208     0.49129
   38          O          -0.695902        6.6959     1.72617     4.96973
   39          H           0.369373        0.6306     0.63063
   40          H           0.370105        0.6299     0.62989
   41          H           0.369771        0.6302     0.63023
   42          H           0.369522        0.6305     0.63048
   43         Mg           1.069132        0.9309     0.50190     0.42897
   44         Mg           1.071763        0.9282     0.50184     0.42640
   45         Mg           1.070267        0.9297     0.50156     0.42817
   46         Mg           1.070301        0.9297     0.50174     0.42796
   47         Mg           1.069889        0.9301     0.50167     0.42844
   48         Mg           1.071244        0.9288     0.50155     0.42720
   49          O          -0.695585        6.6956     1.72630     4.96929
   50          O          -0.696457        6.6965     1.72659     4.96987
   51          O          -0.696621        6.6966     1.72625     4.97037
   52          O          -0.695371        6.6954     1.72622     4.96915
   53          O          -0.695270        6.6953     1.72628     4.96899
   54          O          -0.695723        6.6957     1.72594     4.96978
   55          O          -0.695312        6.6953     1.72618     4.96914
   56          O          -0.501059        6.5011     1.60175     4.89931
   57          O          -0.499755        6.4998     1.60142     4.89834
   58          O          -0.500084        6.5001     1.60166     4.89842
   59          O          -0.502689        6.5027     1.60162     4.90106
   60          O          -0.499862        6.4999     1.60415     4.89571
   61          O          -0.499490        6.4995     1.60368     4.89581
   62          O          -0.501815        6.5018     1.60463     4.89718
   63          O          -0.498292        6.4983     1.60419     4.89410
   64          O          -0.497142        6.4971     1.60374     4.89341
   65          O          -0.495475        6.4955     1.60367     4.89180
   66          O          -0.496240        6.4962     1.60453     4.89171
   67          O          -0.496215        6.4962     1.60388     4.89233
   68          O          -0.860717        6.8607     1.76801     5.09271
   69          O          -0.860063        6.8601     1.76739     5.09268
   70          O          -0.860659        6.8607     1.76763     5.09303
   71          O          -0.860243        6.8602     1.76726     5.09298
   72         Si           0.886652        3.1133     0.60929     2.01240     0.49165
   73         Si           0.887291        3.1127     0.60933     2.01215     0.49123
   74         Si           0.885686        3.1143     0.60921     2.01300     0.49210
   75         Si           0.887314        3.1127     0.60935     2.01206     0.49128
   76         Si           0.886384        3.1136     0.60935     2.01257     0.49169
   77         Si           0.886042        3.1140     0.60948     2.01276     0.49171
   78         Si           0.886348        3.1137     0.60943     2.01256     0.49166
   79         Si           0.887222        3.1128     0.60941     2.01204     0.49133
   80          O          -0.695357        6.6954     1.72608     4.96928
   81          H           0.369394        0.6306     0.63061
   82          H           0.369784        0.6302     0.63022
   83          H           0.370093        0.6299     0.62991
   84          H           0.369812        0.6302     0.63019
   85         Mg           1.069240        0.9308     0.50192     0.42884
   86         Mg           1.068701        0.9313     0.50198     0.42932
   87         Mg           1.070286        0.9297     0.50161     0.42811
   88         Mg           1.072079        0.9279     0.50155     0.42637
   89         Mg           1.070073        0.9299     0.50155     0.42837
   90         Mg           1.070230        0.9298     0.50166     0.42811
   91          O          -0.696069        6.6961     1.72621     4.96985
   92          O          -0.695187        6.6952     1.72610     4.96909
   93          O          -0.695642        6.6956     1.72627     4.96937
   94          O          -0.696497        6.6965     1.72659     4.96991
   95          O          -0.696266        6.6963     1.72597     4.97029
   96          O          -0.694887        6.6949     1.72601     4.96888
   97          O          -0.695677        6.6957     1.72606     4.96961
   98          O          -0.501055        6.5011     1.60116     4.89990
   99          O          -0.499582        6.4996     1.60181     4.89777
  100          O          -0.498187        6.4982     1.60155     4.89664
  101          O          -0.500295        6.5003     1.60125     4.89905
  102          O          -0.498516        6.4985     1.60391     4.89461
  103          O          -0.500087        6.5001     1.60407     4.89602
  104          O          -0.499917        6.4999     1.60390     4.89602
  105          O          -0.499929        6.4999     1.60440     4.89553
  106          O          -0.496286        6.4963     1.60385     4.89243
  107          O          -0.497424        6.4974     1.60423     4.89320
  108          O          -0.497702        6.4977     1.60440     4.89331
  109          O          -0.494309        6.4943     1.60367     4.89064
  110          O          -0.860690        6.8607     1.76747     5.09322
  111          O          -0.861065        6.8611     1.76768     5.09339
  112          O          -0.860360        6.8604     1.76784     5.09252
  113          O          -0.860125        6.8601     1.76733     5.09280
  114         Si           0.886259        3.1137     0.60943     2.01277     0.49154
  115         Si           0.885898        3.1141     0.60931     2.01286     0.49193
  116         Si           0.887176        3.1128     0.60930     2.01216     0.49136
  117         Si           0.886171        3.1138     0.60933     2.01265     0.49185
  118         Si           0.886739        3.1133     0.60944     2.01223     0.49160
  119         Si           0.887518        3.1125     0.60950     2.01183     0.49115
  120         Si           0.886642        3.1134     0.60939     2.01246     0.49151
  121         Si           0.885938        3.1141     0.60940     2.01285     0.49181
  122          O          -0.695598        6.6956     1.72628     4.96931
  123          H           0.370078        0.6299     0.62992
  124          H           0.369698        0.6303     0.63030
  125          H           0.369606        0.6304     0.63039
  126          H           0.369698        0.6303     0.63030
  127         Mg           1.069385        0.9306     0.50186     0.42875
  128         Mg           1.069050        0.9310     0.50203     0.42892
  129         Mg           1.070928        0.9291     0.50156     0.42751
  130         Mg           1.072319        0.9277     0.50163     0.42605
  131         Mg           1.069418        0.9306     0.50161     0.42897
  132         Mg           1.070091        0.9299     0.50165     0.42826
  133          O          -0.695789        6.6958     1.72618     4.96961
  134          O          -0.695099        6.6951     1.72639     4.96871
  135          O          -0.696052        6.6961     1.72610     4.96995
  136          O          -0.696123        6.6961     1.72663     4.96949
  137          O          -0.696095        6.6961     1.72618     4.96991
  138          O          -0.695212        6.6952     1.72601     4.96921
  139          O          -0.696242        6.6962     1.72594     4.97030
  140          O          -0.502288        6.5023     1.60188     4.90041
  141          O          -0.499421        6.4994     1.60193     4.89749
  142          O          -0.499303        6.4993     1.60186     4.89744
  143          O          -0.501309        6.5013     1.60106     4.90025
  144          O          -0.498200        6.4982     1.60359     4.89461
  145          O          -0.500814        6.5008     1.60408     4.89674
  146          O          -0.499270        6.4993     1.60362     4.89565
  147          O          -0.498692        6.4987     1.60442     4.89427
  148          O          -0.496933        6.4969     1.60380     4.89314
  149          O          -0.496806        6.4968     1.60365     4.89316
  150          O          -0.497515        6.4975     1.60447     4.89304
  151          O          -0.494586        6.4946     1.60387     4.89071
  152          O          -0.860772        6.8608     1.76763     5.09314
  153          O          -0.860658        6.8607     1.76778     5.09287
  154          O          -0.861058        6.8611     1.76776     5.09329
  155          O          -0.860057        6.8601     1.76711     5.09295
  156         Si           0.886011        3.1140     0.60933     2.01293     0.49173
  157         Si           0.886369        3.1136     0.60932     2.01259     0.49172
  158         Si           0.886664        3.1133     0.60923     2.01242     0.49169
  159         Si           0.885688        3.1143     0.60925     2.01296     0.49210
  160         Si           0.886743        3.1133     0.60939     2.01226     0.49161
  161         Si           0.887799        3.1122     0.60960     2.01166     0.49094
  162         Si           0.886600        3.1134     0.60942     2.01250     0.49148
  163         Si           0.886272        3.1137     0.60947     2.01263     0.49162
  164          O          -0.695126        6.6951     1.72606     4.96906
  165          H           0.369888        0.6301     0.63011
  166          H           0.369404        0.6306     0.63060
  167          H           0.369698        0.6303     0.63030
  168          H           0.370023        0.6300     0.62998


          ATOMIC ORBITAL ELECTRON POPULATIONS

     Atom    s        px        py        pz      x^2-y^2     xz        z^2       yz        xy
    1 Mg   0.50194   0.14342   0.16028   0.12522
    2 Mg   0.50178   0.14284   0.15993   0.12405
    3 Mg   0.50163   0.15577   0.14729   0.12537
    4 Mg   0.50162   0.15543   0.14709   0.12539
    5 Mg   0.50167   0.15591   0.14664   0.12522
    6 Mg   0.50158   0.15525   0.14736   0.12455
    7  O   1.72635   1.74320   1.74272   1.48342
    8  O   1.72629   1.74304   1.74399   1.48361
    9  O   1.72650   1.74325   1.74336   1.48339
   10  O   1.72635   1.74381   1.74218   1.48333
   11  O   1.72591   1.74726   1.73860   1.48366
   12  O   1.72608   1.74657   1.73935   1.48329
   13  O   1.72618   1.74492   1.74011   1.48349
   14  O   1.60152   1.46879   1.68348   1.74683
   15  O   1.60122   1.46851   1.68319   1.74655
   16  O   1.60148   1.46942   1.68242   1.74649
   17  O   1.60155   1.46997   1.68272   1.74722
   18  O   1.60405   1.47110   1.68043   1.74403
   19  O   1.60412   1.47114   1.68089   1.74341
   20  O   1.60482   1.47139   1.68124   1.74514
   21  O   1.60386   1.47076   1.68091   1.74352
   22  O   1.60372   1.78471   1.36371   1.74422
   23  O   1.60419   1.78464   1.36394   1.74294
   24  O   1.60384   1.78441   1.36409   1.74297
   25  O   1.60361   1.78447   1.36398   1.74373
   26  O   1.76698   1.82943   1.82418   1.44044
   27  O   1.76724   1.82925   1.82381   1.44013
   28  O   1.76649   1.82988   1.82344   1.44063
   29  O   1.76752   1.82920   1.82351   1.44012
   30 Si   0.60925   0.67010   0.66769   0.67478   0.10088   0.09252   0.10563   0.09202   0.10074
   31 Si   0.60918   0.66997   0.66773   0.67464   0.10096   0.09229   0.10564   0.09185   0.10085
   32 Si   0.60949   0.66978   0.66784   0.67475   0.10073   0.09249   0.10559   0.09198   0.10064
   33 Si   0.60938   0.66946   0.66765   0.67492   0.10071   0.09239   0.10560   0.09186   0.10066
   34 Si   0.60949   0.66966   0.66782   0.67485   0.10078   0.09231   0.10558   0.09209   0.10070
   35 Si   0.60926   0.66996   0.66828   0.67489   0.10089   0.09245   0.10568   0.09229   0.10086
   36 Si   0.60945   0.66954   0.66806   0.67476   0.10073   0.09234   0.10559   0.09215   0.10074
   37 Si   0.60942   0.66942   0.66798   0.67467   0.10067   0.09209   0.10557   0.09213   0.10084
   38  O   1.72617   1.74613   1.74049   1.48311
   39  H   0.63063
   40  H   0.62989
   41  H   0.63023
   42  H   0.63048
   43 Mg   0.50190   0.14351   0.16030   0.12516
   44 Mg   0.50184   0.14295   0.15970   0.12375
   45 Mg   0.50156   0.15583   0.14737   0.12497
   46 Mg   0.50174   0.15547   0.14709   0.12540
   47 Mg   0.50167   0.15576   0.14705   0.12563
   48 Mg   0.50155   0.15562   0.14691   0.12467
   49  O   1.72630   1.74304   1.74275   1.48349
   50  O   1.72659   1.74340   1.74337   1.48311
   51  O   1.72625   1.74346   1.74335   1.48355
   52  O   1.72622   1.74333   1.74219   1.48363
   53  O   1.72628   1.74693   1.73873   1.48333
   54  O   1.72594   1.74711   1.73931   1.48336
   55  O   1.72618   1.74549   1.74028   1.48337
   56  O   1.60175   1.46834   1.68408   1.74688
   57  O   1.60142   1.46827   1.68373   1.74634
   58  O   1.60166   1.46965   1.68214   1.74663
   59  O   1.60162   1.46936   1.68352   1.74819
   60  O   1.60415   1.47139   1.68016   1.74416
   61  O   1.60368   1.47040   1.68154   1.74387
   62  O   1.60463   1.47177   1.68045   1.74496
   63  O   1.60419   1.47081   1.68084   1.74245
   64  O   1.60374   1.78484   1.36366   1.74490
   65  O   1.60367   1.78447   1.36403   1.74330
   66  O   1.60453   1.78478   1.36407   1.74286
   67  O   1.60388   1.78463   1.36387   1.74383
   68  O   1.76801   1.82920   1.82360   1.43991
   69  O   1.76739   1.82885   1.82377   1.44005
   70  O   1.76763   1.82923   1.82365   1.44015
   71  O   1.76726   1.82917   1.82350   1.44031
   72 Si   0.60929   0.66996   0.66766   0.67478   0.10090   0.09248   0.10562   0.09193   0.10072
   73 Si   0.60933   0.66970   0.66766   0.67479   0.10076   0.09227   0.10559   0.09189   0.10072
   74 Si   0.60921   0.67012   0.66791   0.67498   0.10087   0.09254   0.10569   0.09213   0.10086
   75 Si   0.60935   0.66951   0.66783   0.67472   0.10065   0.09232   0.10560   0.09195   0.10075
   76 Si   0.60935   0.66975   0.66779   0.67504   0.10094   0.09243   0.10563   0.09198   0.10071
   77 Si   0.60948   0.66976   0.66804   0.67496   0.10075   0.09251   0.10561   0.09221   0.10064
   78 Si   0.60943   0.66978   0.66828   0.67451   0.10078   0.09235   0.10560   0.09215   0.10078
   79 Si   0.60941   0.66934   0.66797   0.67472   0.10072   0.09200   0.10557   0.09209   0.10095
   80  O   1.72608   1.74558   1.74051   1.48319
   81  H   0.63061
   82  H   0.63022
   83  H   0.62991
   84  H   0.63019
   85 Mg   0.50192   0.14325   0.16059   0.12500
   86 Mg   0.50198   0.14336   0.16020   0.12575
   87 Mg   0.50161   0.15543   0.14721   0.12547
   88 Mg   0.50155   0.15562   0.14667   0.12408
   89 Mg   0.50155   0.15611   0.14734   0.12492
   90 Mg   0.50166   0.15536   0.14747   0.12528
   91  O   1.72621   1.74288   1.74349   1.48348
   92  O   1.72610   1.74197   1.74321   1.48391
   93  O   1.72627   1.74352   1.74219   1.48366
   94  O   1.72659   1.74447   1.74225   1.48319
   95  O   1.72597   1.74795   1.73891   1.48343
   96  O   1.72601   1.74774   1.73808   1.48306
   97  O   1.72606   1.74533   1.74092   1.48336
   98  O   1.60116   1.46948   1.68310   1.74731
   99  O   1.60181   1.46871   1.68305   1.74600
  100  O   1.60155   1.46814   1.68340   1.74510
  101  O   1.60125   1.46879   1.68374   1.74652
  102  O   1.60391   1.47041   1.68098   1.74321
  103  O   1.60407   1.47113   1.68102   1.74387
  104  O   1.60390   1.47032   1.68185   1.74385
  105  O   1.60440   1.47113   1.68051   1.74389
  106  O   1.60385   1.78473   1.36417   1.74354
  107  O   1.60423   1.78485   1.36390   1.74445
  108  O   1.60440   1.78508   1.36338   1.74485
  109  O   1.60367   1.78412   1.36374   1.74278
  110  O   1.76747   1.82854   1.82464   1.44004
  111  O   1.76768   1.82926   1.82414   1.43999
  112  O   1.76784   1.82959   1.82260   1.44032
  113  O   1.76733   1.82954   1.82289   1.44036
  114 Si   0.60943   0.66973   0.66817   0.67488   0.10060   0.09232   0.10560   0.09218   0.10085
  115 Si   0.60931   0.67057   0.66765   0.67464   0.10100   0.09254   0.10565   0.09197   0.10077
  116 Si   0.60930   0.67019   0.66732   0.67465   0.10087   0.09246   0.10560   0.09184   0.10060
  117 Si   0.60933   0.66992   0.66782   0.67491   0.10083   0.09246   0.10565   0.09210   0.10081
  118 Si   0.60944   0.66942   0.66813   0.67468   0.10074   0.09223   0.10559   0.09219   0.10085
  119 Si   0.60950   0.66913   0.66797   0.67473   0.10053   0.09198   0.10556   0.09215   0.10093
  120 Si   0.60939   0.66964   0.66793   0.67489   0.10085   0.09234   0.10562   0.09199   0.10071
  121 Si   0.60940   0.66998   0.66795   0.67492   0.10081   0.09243   0.10561   0.09221   0.10074
  122  O   1.72628   1.74491   1.74129   1.48311
  123  H   0.62992
  124  H   0.63030
  125  H   0.63039
  126  H   0.63030
  127 Mg   0.50186   0.14337   0.16053   0.12486
  128 Mg   0.50203   0.14348   0.16000   0.12545
  129 Mg   0.50156   0.15543   0.14706   0.12501
  130 Mg   0.50163   0.15537   0.14664   0.12404
  131 Mg   0.50161   0.15589   0.14783   0.12524
  132 Mg   0.50165   0.15591   0.14696   0.12539
  133  O   1.72618   1.74264   1.74347   1.48350
  134  O   1.72639   1.74241   1.74283   1.48347
  135  O   1.72610   1.74376   1.74235   1.48384
  136  O   1.72663   1.74384   1.74232   1.48333
  137  O   1.72618   1.74758   1.73914   1.48319
  138  O   1.72601   1.74826   1.73787   1.48307
  139  O   1.72594   1.74558   1.74133   1.48340
  140  O   1.60188   1.46892   1.68406   1.74742
  141  O   1.60193   1.46859   1.68316   1.74574
  142  O   1.60186   1.46827   1.68354   1.74563
  143  O   1.60106   1.46846   1.68411   1.74767
  144  O   1.60359   1.47066   1.68063   1.74331
  145  O   1.60408   1.47056   1.68172   1.74446
  146  O   1.60362   1.47033   1.68149   1.74383
  147  O   1.60442   1.47100   1.68038   1.74289
  148  O   1.60380   1.78485   1.36419   1.74410
  149  O   1.60365   1.78456   1.36403   1.74456
  150  O   1.60447   1.78504   1.36329   1.74471
  151  O   1.60387   1.78419   1.36375   1.74277
  152  O   1.76763   1.82880   1.82429   1.44005
  153  O   1.76778   1.82864   1.82427   1.43997
  154  O   1.76776   1.82958   1.82315   1.44057
  155  O   1.76711   1.82957   1.82279   1.44060
  156 Si   0.60933   0.66974   0.66825   0.67494   0.10070   0.09232   0.10564   0.09216   0.10092
  157 Si   0.60932   0.67032   0.66753   0.67474   0.10095   0.09253   0.10562   0.09193   0.10068
  158 Si   0.60923   0.67035   0.66726   0.67481   0.10091   0.09258   0.10564   0.09193   0.10063
  159 Si   0.60925   0.67001   0.66820   0.67475   0.10087   0.09247   0.10568   0.09215   0.10093
  160 Si   0.60939   0.66944   0.66805   0.67477   0.10080   0.09230   0.10560   0.09211   0.10080
  161 Si   0.60960   0.66911   0.66779   0.67476   0.10044   0.09191   0.10551   0.09216   0.10091
  162 Si   0.60942   0.66994   0.66801   0.67455   0.10090   0.09225   0.10560   0.09194   0.10079
  163 Si   0.60947   0.66968   0.66795   0.67500   0.10074   0.09234   0.10560   0.09220   0.10074
  164  O   1.72606   1.74421   1.74150   1.48336
  165  H   0.63011
  166  H   0.63060
  167  H   0.63030
  168  H   0.62998

 **********************
 *                    *
 * JOB ENDED NORMALLY *
 *                    *
 **********************



 TOTAL JOB TIME:           736.71 SECONDS

 == MOPAC DONE ==
